 Entering Link 1 = C:\G16W\l1.exe PID=      3876.
  
 Copyright (c) 1988,1990,1992,1993,1995,1998,2003,2009,2016,
            Gaussian, Inc.  All Rights Reserved.
  
 This is part of the Gaussian(R) 16 program.  It is based on
 the Gaussian(R) 09 system (copyright 2009, Gaussian, Inc.),
 the Gaussian(R) 03 system (copyright 2003, Gaussian, Inc.),
 the Gaussian(R) 98 system (copyright 1998, Gaussian, Inc.),
 the Gaussian(R) 94 system (copyright 1995, Gaussian, Inc.),
 the Gaussian 92(TM) system (copyright 1992, Gaussian, Inc.),
 the Gaussian 90(TM) system (copyright 1990, Gaussian, Inc.),
 the Gaussian 88(TM) system (copyright 1988, Gaussian, Inc.),
 the Gaussian 86(TM) system (copyright 1986, Carnegie Mellon
 University), and the Gaussian 82(TM) system (copyright 1983,
 Carnegie Mellon University). Gaussian is a federally registered
 trademark of Gaussian, Inc.
  
 This software contains proprietary and confidential information,
 including trade secrets, belonging to Gaussian, Inc.
  
 This software is provided under written license and may be
 used, copied, transmitted, or stored only in accord with that
 written license.
  
 The following legend is applicable only to US Government
 contracts under FAR:
  
                    RESTRICTED RIGHTS LEGEND
  
 Use, reproduction and disclosure by the US Government is
 subject to restrictions as set forth in subparagraphs (a)
 and (c) of the Commercial Computer Software - Restricted
 Rights clause in FAR 52.227-19.
  
 Gaussian, Inc.
 340 Quinnipiac St., Bldg. 40, Wallingford CT 06492
  
  
 ---------------------------------------------------------------
 Warning -- This program may not be used in any manner that
 competes with the business of Gaussian, Inc. or will provide
 assistance to any competitor of Gaussian, Inc.  The licensee
 of this program is prohibited from giving any competitor of
 Gaussian, Inc. access to this program.  By using this program,
 the user acknowledges that Gaussian, Inc. is engaged in the
 business of creating and licensing software in the field of
 computational chemistry and represents and warrants to the
 licensee that it is not a competitor of Gaussian, Inc. and that
 it will not use this program in any manner prohibited above.
 ---------------------------------------------------------------
  

 Cite this work as:
 Gaussian 16, Revision A.03,
 M. J. Frisch, G. W. Trucks, H. B. Schlegel, G. E. Scuseria, 
 M. A. Robb, J. R. Cheeseman, G. Scalmani, V. Barone, 
 G. A. Petersson, H. Nakatsuji, X. Li, M. Caricato, A. V. Marenich, 
 J. Bloino, B. G. Janesko, R. Gomperts, B. Mennucci, H. P. Hratchian, 
 J. V. Ortiz, A. F. Izmaylov, J. L. Sonnenberg, D. Williams-Young, 
 F. Ding, F. Lipparini, F. Egidi, J. Goings, B. Peng, A. Petrone, 
 T. Henderson, D. Ranasinghe, V. G. Zakrzewski, J. Gao, N. Rega, 
 G. Zheng, W. Liang, M. Hada, M. Ehara, K. Toyota, R. Fukuda, 
 J. Hasegawa, M. Ishida, T. Nakajima, Y. Honda, O. Kitao, H. Nakai, 
 T. Vreven, K. Throssell, J. A. Montgomery, Jr., J. E. Peralta, 
 F. Ogliaro, M. J. Bearpark, J. J. Heyd, E. N. Brothers, K. N. Kudin, 
 V. N. Staroverov, T. A. Keith, R. Kobayashi, J. Normand, 
 K. Raghavachari, A. P. Rendell, J. C. Burant, S. S. Iyengar, 
 J. Tomasi, M. Cossi, J. M. Millam, M. Klene, C. Adamo, R. Cammi, 
 J. W. Ochterski, R. L. Martin, K. Morokuma, O. Farkas, 
 J. B. Foresman, and D. J. Fox, Gaussian, Inc., Wallingford CT, 2016.
 
 ******************************************
 Gaussian 16:  IA32W-G16RevA.03 25-Dec-2016
                09-Jul-2025 
 ******************************************
 %chk=D:\gfile\pywfn\C2H4.chk
 -------------------------------------------------
 # opt b3lyp/6-31g(d) pop=full gfinput iop(3/33=1)
 -------------------------------------------------
 1/18=20,19=15,26=3,38=1/1,3;
 2/9=110,12=2,17=6,18=5,40=1/2;
 3/5=1,6=6,7=1,11=2,24=10,25=1,30=1,33=1,71=1,74=-5/1,2,3;
 4//1;
 5/5=2,38=5/2;
 6/7=3,28=1/1;
 7//1,2,3,16;
 1/18=20,19=15,26=3/3(2);
 2/9=110/2;
 99//99;
 2/9=110/2;
 3/5=1,6=6,7=1,11=2,25=1,30=1,33=1,71=1,74=-5/1,2,3;
 4/5=5,16=3,69=1/1;
 5/5=2,38=5/2;
 7//1,2,3,16;
 1/18=20,19=15,26=3/3(-5);
 2/9=110/2;
 6/7=3,19=2,28=1/1;
 99/9=1/99;
 -------------------
 Title Card Required
 -------------------
 Symbolic Z-matrix:
 Charge =  0 Multiplicity = 1
 C                     0.       -0.6776    0. 
 H                     0.92665  -1.2126    0. 
 H                    -0.92665  -1.2126    0. 
 C                     0.        0.6776    0. 
 H                    -0.92665   1.2126    0. 
 H                     0.92665   1.2126    0. 
 

 GradGradGradGradGradGradGradGradGradGradGradGradGradGradGradGradGradGrad
 Berny optimization.
 Initialization pass.
                           ----------------------------
                           !    Initial Parameters    !
                           ! (Angstroms and Degrees)  !
 --------------------------                            --------------------------
 ! Name  Definition              Value          Derivative Info.                !
 --------------------------------------------------------------------------------
 ! R1    R(1,2)                  1.07           estimate D2E/DX2                !
 ! R2    R(1,3)                  1.07           estimate D2E/DX2                !
 ! R3    R(1,4)                  1.3552         estimate D2E/DX2                !
 ! R4    R(4,5)                  1.07           estimate D2E/DX2                !
 ! R5    R(4,6)                  1.07           estimate D2E/DX2                !
 ! A1    A(2,1,3)              120.0            estimate D2E/DX2                !
 ! A2    A(2,1,4)              120.0            estimate D2E/DX2                !
 ! A3    A(3,1,4)              120.0            estimate D2E/DX2                !
 ! A4    A(1,4,5)              120.0            estimate D2E/DX2                !
 ! A5    A(1,4,6)              120.0            estimate D2E/DX2                !
 ! A6    A(5,4,6)              120.0            estimate D2E/DX2                !
 ! D1    D(2,1,4,5)            180.0            estimate D2E/DX2                !
 ! D2    D(2,1,4,6)              0.0            estimate D2E/DX2                !
 ! D3    D(3,1,4,5)              0.0            estimate D2E/DX2                !
 ! D4    D(3,1,4,6)            180.0            estimate D2E/DX2                !
 --------------------------------------------------------------------------------
 Trust Radius=3.00D-01 FncErr=1.00D-07 GrdErr=1.00D-06 EigMax=2.50D+02 EigMin=1.00D-04
 Number of steps in this run=     25 maximum allowed number of steps=    100.
 GradGradGradGradGradGradGradGradGradGradGradGradGradGradGradGradGradGrad

                          Input orientation:                          
 ---------------------------------------------------------------------
 Center     Atomic      Atomic             Coordinates (Angstroms)
 Number     Number       Type             X           Y           Z
 ---------------------------------------------------------------------
      1          6           0        0.000000   -0.677600    0.000000
      2          1           0        0.926647   -1.212600    0.000000
      3          1           0       -0.926647   -1.212600    0.000000
      4          6           0        0.000000    0.677600    0.000000
      5          1           0       -0.926647    1.212600    0.000000
      6          1           0        0.926647    1.212600    0.000000
 ---------------------------------------------------------------------
                    Distance matrix (angstroms):
                    1          2          3          4          5
     1  C    0.000000
     2  H    1.070000   0.000000
     3  H    1.070000   1.853294   0.000000
     4  C    1.355200   2.105120   2.105120   0.000000
     5  H    2.105120   3.052261   2.425200   1.070000   0.000000
     6  H    2.105120   2.425200   3.052261   1.070000   1.853294
                    6
     6  H    0.000000
 Stoichiometry    C2H4
 Framework group  D2H[C2"(C.C),SG(H4)]
 Deg. of freedom     3
 Full point group                 D2H     NOp   8
 Largest Abelian subgroup         D2H     NOp   8
 Largest concise Abelian subgroup D2      NOp   4
                         Standard orientation:                         
 ---------------------------------------------------------------------
 Center     Atomic      Atomic             Coordinates (Angstroms)
 Number     Number       Type             X           Y           Z
 ---------------------------------------------------------------------
      1          6           0        0.000000    0.000000    0.677600
      2          1           0        0.000000    0.926647    1.212600
      3          1           0        0.000000   -0.926647    1.212600
      4          6           0        0.000000    0.000000   -0.677600
      5          1           0        0.000000   -0.926647   -1.212600
      6          1           0        0.000000    0.926647   -1.212600
 ---------------------------------------------------------------------
 Rotational constants (GHZ):         145.9967702          29.8211119          24.7630444
 Standard basis: 6-31G(d) (6D, 7F)
                         Coordinates in L301:                         
 ---------------------------------------------------------------------
 Center     Atomic      Atomic             Coordinates (Angstroms)
 Number     Number       Type             X           Y           Z
 ---------------------------------------------------------------------
      1          6           0        0.000000    0.000000    0.677600
      2          1           0        0.000000    0.926647    1.212600
      3          1           0        0.000000   -0.926647    1.212600
      4          6           0        0.000000    0.000000   -0.677600
      5          1           0        0.000000   -0.926647   -1.212600
      6          1           0        0.000000    0.926647   -1.212600
 ---------------------------------------------------------------------
 FixB: optimizing general contractions.
 Ernie: Thresh=  0.10000D-02 Tol=  0.10000D-05 Strict=F.
 IA=     1 ShT= 0 ShC= 0 NL=   1 NS=   0.
 IA=     1 L=0 SC=0 ISt=    0 NBk=    0 NP=    0 IndPr=    0.
 IA=     1 ShT= 1 ShC= 0 NL=   2 NS=   1.
 IA=     1 L=1 SC=0 ISt=    0 NBk=    0 NP=    0 IndPr=    0.
 IA=     1 ShT= 2 ShC= 2 NL=   1 NS=   1.
 IA=     1 L=2 SC=2 ISt=    0 NBk=    0 NP=    0 IndPr=    0.
 IA=     2 ShT= 0 ShC= 0 NL=   2 NS=   1.
 IA=     2 L=0 SC=0 ISt=    0 NBk=    0 NP=    0 IndPr=    0.
 IA=     3 ShT= 0 ShC= 0 NL=   2 NS=   1.
 IA=     3 L=0 SC=0 ISt=    0 NBk=    0 NP=    0 IndPr=    0.
 IA=     4 ShT= 0 ShC= 0 NL=   1 NS=   0.
 IA=     4 L=0 SC=0 ISt=    0 NBk=    0 NP=    0 IndPr=    0.
 IA=     4 ShT= 1 ShC= 0 NL=   2 NS=   1.
 IA=     4 L=1 SC=0 ISt=    0 NBk=    0 NP=    0 IndPr=    0.
 IA=     4 ShT= 2 ShC= 2 NL=   1 NS=   1.
 IA=     4 L=2 SC=2 ISt=    0 NBk=    0 NP=    0 IndPr=    0.
 IA=     5 ShT= 0 ShC= 0 NL=   2 NS=   1.
 IA=     5 L=0 SC=0 ISt=    0 NBk=    0 NP=    0 IndPr=    0.
 IA=     6 ShT= 0 ShC= 0 NL=   2 NS=   1.
 IA=     6 L=0 SC=0 ISt=    0 NBk=    0 NP=    0 IndPr=    0.
 AO basis set in the form of general basis input (Overlap normalization):
      1 0
 S   6 1.00       0.000000000000
      0.3047524880D+04  0.1834737132D-02
      0.4573695180D+03  0.1403732281D-01
      0.1039486850D+03  0.6884262226D-01
      0.2921015530D+02  0.2321844432D+00
      0.9286662960D+01  0.4679413484D+00
      0.3163926960D+01  0.3623119853D+00
 SP   3 1.00       0.000000000000
      0.7868272350D+01 -0.1193324198D+00  0.6899906659D-01
      0.1881288540D+01 -0.1608541517D+00  0.3164239610D+00
      0.5442492580D+00  0.1143456438D+01  0.7443082909D+00
 SP   1 1.00       0.000000000000
      0.1687144782D+00  0.1000000000D+01  0.1000000000D+01
 D   1 1.00       0.000000000000
      0.8000000000D+00  0.1000000000D+01
 ****
      2 0
 S   3 1.00       0.000000000000
      0.1873113696D+02  0.3349460434D-01
      0.2825394365D+01  0.2347269535D+00
      0.6401216923D+00  0.8137573261D+00
 S   1 1.00       0.000000000000
      0.1612777588D+00  0.1000000000D+01
 ****
      3 0
 S   3 1.00       0.000000000000
      0.1873113696D+02  0.3349460434D-01
      0.2825394365D+01  0.2347269535D+00
      0.6401216923D+00  0.8137573261D+00
 S   1 1.00       0.000000000000
      0.1612777588D+00  0.1000000000D+01
 ****
      4 0
 S   6 1.00       0.000000000000
      0.3047524880D+04  0.1834737132D-02
      0.4573695180D+03  0.1403732281D-01
      0.1039486850D+03  0.6884262226D-01
      0.2921015530D+02  0.2321844432D+00
      0.9286662960D+01  0.4679413484D+00
      0.3163926960D+01  0.3623119853D+00
 SP   3 1.00       0.000000000000
      0.7868272350D+01 -0.1193324198D+00  0.6899906659D-01
      0.1881288540D+01 -0.1608541517D+00  0.3164239610D+00
      0.5442492580D+00  0.1143456438D+01  0.7443082909D+00
 SP   1 1.00       0.000000000000
      0.1687144782D+00  0.1000000000D+01  0.1000000000D+01
 D   1 1.00       0.000000000000
      0.8000000000D+00  0.1000000000D+01
 ****
      5 0
 S   3 1.00       0.000000000000
      0.1873113696D+02  0.3349460434D-01
      0.2825394365D+01  0.2347269535D+00
      0.6401216923D+00  0.8137573261D+00
 S   1 1.00       0.000000000000
      0.1612777588D+00  0.1000000000D+01
 ****
      6 0
 S   3 1.00       0.000000000000
      0.1873113696D+02  0.3349460434D-01
      0.2825394365D+01  0.2347269535D+00
      0.6401216923D+00  0.8137573261D+00
 S   1 1.00       0.000000000000
      0.1612777588D+00  0.1000000000D+01
 ****

 LdAtmC:  AtmChg=     6.000000     1.000000     1.000000     6.000000     1.000000
 LdAtmC:  AtmChg=     1.000000
 AtZEff=     -3.6000000     -1.0000000     -1.0000000     -3.6000000     -1.0000000
 AtZEff=     -1.0000000
 NEqShl: 
              1            2            3            4            5
     1            1            1            9            9            1
     2            2            2           10           10            2
     3            3            3           11           11            3
     4            4            4           12           12            4
     5            5            7           15           13            5
     6            6            8           16           14            6
     7            7            5           13           15            7
     8            8            6           14           16            8
     9            9            9            1            1            9
    10           10           10            2            2           10
    11           11           11            3            3           11
    12           12           12            4            4           12
    13           13           15            7            5           13
    14           14           16            8            6           14
    15           15           13            5            7           15
    16           16           14            6            8           16
              6            7            8
     1            1            9            9
     2            2           10           10
     3            3           11           11
     4            4           12           12
     5            7           15           13
     6            8           16           14
     7            5           13           15
     8            6           14           16
     9            9            1            1
    10           10            2            2
    11           11            3            3
    12           12            4            4
    13           15            7            5
    14           16            8            6
    15           13            5            7
    16           14            6            8
 NEqBas: 
              1            2            3            4            5
     1            1            1           20           20            1
     2            2            2           21           21            2
     3            3           -3          -22           22           -3
     4            4           -4           23          -23            4
     5            5            5          -24          -24            5
     6            6            6           25           25            6
     7            7           -7          -26           26           -7
     8            8           -8           27          -27            8
     9            9            9          -28          -28            9
    10           10           10           29           29           10
    11           11           11           30           30           11
    12           12           12           31           31           12
    13           13           13          -32          -32          -13
    14           14          -14           33          -33          -14
    15           15          -15          -34           34           15
    16           16           18           37           35           16
    17           17           19           38           36           17
    18           18           16           35           37           18
    19           19           17           36           38           19
    20           20           20            1            1           20
    21           21           21            2            2           21
    22           22          -22           -3            3          -22
    23           23          -23            4           -4           23
    24           24           24           -5           -5           24
    25           25           25            6            6           25
    26           26          -26           -7            7          -26
    27           27          -27            8           -8           27
    28           28           28           -9           -9           28
    29           29           29           10           10           29
    30           30           30           11           11           30
    31           31           31           12           12           31
    32           32           32          -13          -13          -32
    33           33          -33           14          -14          -33
    34           34          -34          -15           15           34
    35           35           37           18           16           35
    36           36           38           19           17           36
    37           37           35           16           18           37
    38           38           36           17           19           38
              6            7            8
     1            1           20           20
     2            2           21           21
     3            3           22          -22
     4           -4           23          -23
     5            5          -24          -24
     6            6           25           25
     7            7           26          -26
     8           -8           27          -27
     9            9          -28          -28
    10           10           29           29
    11           11           30           30
    12           12           31           31
    13          -13           32           32
    14           14          -33           33
    15          -15          -34           34
    16           18           37           35
    17           19           38           36
    18           16           35           37
    19           17           36           38
    20           20            1            1
    21           21            2            2
    22           22            3           -3
    23          -23            4           -4
    24           24           -5           -5
    25           25            6            6
    26           26            7           -7
    27          -27            8           -8
    28           28           -9           -9
    29           29           10           10
    30           30           11           11
    31           31           12           12
    32          -32           13           13
    33           33          -14           14
    34          -34          -15           15
    35           37           18           16
    36           38           19           17
    37           35           16           18
    38           36           17           19
 There are    10 symmetry adapted cartesian basis functions of AG  symmetry.
   1         1   1  20  20  20  20   1   1
   2         2   2  21  21  21  21   2   2
   3         5   5 -24 -24 -24 -24   5   5
   4         6   6  25  25  25  25   6   6
   5         9   9 -28 -28 -28 -28   9   9
   6        10  10  29  29  29  29  10  10
   7        11  11  30  30  30  30  11  11
   8        12  12  31  31  31  31  12  12
   9        16  18  37  35  35  37  18  16
  10        17  19  38  36  36  38  19  17
 There are     1 symmetry adapted cartesian basis functions of B1G symmetry.
  11        13  13  32  32  32  32  13  13
 There are     3 symmetry adapted cartesian basis functions of B2G symmetry.
  12         3   3 -22 -22 -22 -22   3   3
  13         7   7 -26 -26 -26 -26   7   7
  14        14  14  33  33  33  33  14  14
 There are     5 symmetry adapted cartesian basis functions of B3G symmetry.
  15         4   4 -23 -23 -23 -23   4   4
  16         8   8 -27 -27 -27 -27   8   8
  17        15  15  34  34  34  34  15  15
  18        16 -18 -37  35  35 -37 -18  16
  19        17 -19 -38  36  36 -38 -19  17
 There are     1 symmetry adapted cartesian basis functions of AU  symmetry.
  20        13  13 -32 -32 -32 -32  13  13
 There are    10 symmetry adapted cartesian basis functions of B1U symmetry.
  21         1   1 -20 -20 -20 -20   1   1
  22         2   2 -21 -21 -21 -21   2   2
  23         5   5  24  24  24  24   5   5
  24         6   6 -25 -25 -25 -25   6   6
  25         9   9  28  28  28  28   9   9
  26        10  10 -29 -29 -29 -29  10  10
  27        11  11 -30 -30 -30 -30  11  11
  28        12  12 -31 -31 -31 -31  12  12
  29        16  18 -37 -35 -35 -37  18  16
  30        17  19 -38 -36 -36 -38  19  17
 There are     5 symmetry adapted cartesian basis functions of B2U symmetry.
  31         4   4  23  23  23  23   4   4
  32         8   8  27  27  27  27   8   8
  33        15  15 -34 -34 -34 -34  15  15
  34        16 -18  37 -35 -35  37 -18  16
  35        17 -19  38 -36 -36  38 -19  17
 There are     3 symmetry adapted cartesian basis functions of B3U symmetry.
  36         3   3  22  22  22  22   3   3
  37         7   7  26  26  26  26   7   7
  38        14  14 -33 -33 -33 -33  14  14
 Order= 1 2 3 4 8 7 6 5
 Reordered character table:
              1            2            3            4            5
     1            1            1            1            1            1
     2            2            1            1           -1           -1
     3            3            1           -1            1           -1
     4            4            1           -1           -1            1
     5            8            1           -1           -1            1
     6            7            1           -1            1           -1
     7            6            1            1           -1           -1
     8            5            1            1            1            1
              6            7            8            9
     1            1            1            1            1
     2            1            1           -1           -1
     3            1           -1            1           -1
     4            1           -1           -1            1
     5           -1            1            1           -1
     6           -1            1           -1            1
     7           -1           -1            1            1
     8           -1           -1           -1           -1
 NEqShl: 
              1            2            3            4            5
     1            1            1            9            9            1
     2            2            2           10           10            2
     3            3            3           11           11            3
     4            4            4           12           12            4
     5            5            7           15           13            5
     6            6            8           16           14            6
     7            7            5           13           15            7
     8            8            6           14           16            8
     9            9            9            1            1            9
    10           10           10            2            2           10
    11           11           11            3            3           11
    12           12           12            4            4           12
    13           13           15            7            5           13
    14           14           16            8            6           14
    15           15           13            5            7           15
    16           16           14            6            8           16
              6            7            8
     1            1            9            9
     2            2           10           10
     3            3           11           11
     4            4           12           12
     5            7           15           13
     6            8           16           14
     7            5           13           15
     8            6           14           16
     9            9            1            1
    10           10            2            2
    11           11            3            3
    12           12            4            4
    13           15            7            5
    14           16            8            6
    15           13            5            7
    16           14            6            8
 NEqBas: 
              1            2            3            4            5
     1            1            1           20           20            1
     2            2            2           21           21            2
     3            3           -3          -22           22           -3
     4            4           -4           23          -23            4
     5            5            5          -24          -24            5
     6            6            6           25           25            6
     7            7           -7          -26           26           -7
     8            8           -8           27          -27            8
     9            9            9          -28          -28            9
    10           10           10           29           29           10
    11           11           11           30           30           11
    12           12           12           31           31           12
    13           13           13          -32          -32          -13
    14           14          -14           33          -33          -14
    15           15          -15          -34           34           15
    16           16           18           37           35           16
    17           17           19           38           36           17
    18           18           16           35           37           18
    19           19           17           36           38           19
    20           20           20            1            1           20
    21           21           21            2            2           21
    22           22          -22           -3            3          -22
    23           23          -23            4           -4           23
    24           24           24           -5           -5           24
    25           25           25            6            6           25
    26           26          -26           -7            7          -26
    27           27          -27            8           -8           27
    28           28           28           -9           -9           28
    29           29           29           10           10           29
    30           30           30           11           11           30
    31           31           31           12           12           31
    32           32           32          -13          -13          -32
    33           33          -33           14          -14          -33
    34           34          -34          -15           15           34
    35           35           37           18           16           35
    36           36           38           19           17           36
    37           37           35           16           18           37
    38           38           36           17           19           38
              6            7            8
     1            1           20           20
     2            2           21           21
     3            3           22          -22
     4           -4           23          -23
     5            5          -24          -24
     6            6           25           25
     7            7           26          -26
     8           -8           27          -27
     9            9          -28          -28
    10           10           29           29
    11           11           30           30
    12           12           31           31
    13          -13           32           32
    14           14          -33           33
    15          -15          -34           34
    16           18           37           35
    17           19           38           36
    18           16           35           37
    19           17           36           38
    20           20            1            1
    21           21            2            2
    22           22            3           -3
    23          -23            4           -4
    24           24           -5           -5
    25           25            6            6
    26           26            7           -7
    27          -27            8           -8
    28           28           -9           -9
    29           29           10           10
    30           30           11           11
    31           31           12           12
    32          -32           13           13
    33           33          -14           14
    34          -34          -15           15
    35           37           18           16
    36           38           19           17
    37           35           16           18
    38           36           17           19
 There are    10 symmetry adapted basis functions of AG  symmetry.
   1         1   1  20  20  20  20   1   1
   2         2   2  21  21  21  21   2   2
   3         5   5 -24 -24 -24 -24   5   5
   4         6   6  25  25  25  25   6   6
   5         9   9 -28 -28 -28 -28   9   9
   6        10  10  29  29  29  29  10  10
   7        11  11  30  30  30  30  11  11
   8        12  12  31  31  31  31  12  12
   9        16  18  37  35  35  37  18  16
  10        17  19  38  36  36  38  19  17
 There are     1 symmetry adapted basis functions of B1G symmetry.
  11        13  13  32  32  32  32  13  13
 There are     3 symmetry adapted basis functions of B2G symmetry.
  12         3   3 -22 -22 -22 -22   3   3
  13         7   7 -26 -26 -26 -26   7   7
  14        14  14  33  33  33  33  14  14
 There are     5 symmetry adapted basis functions of B3G symmetry.
  15         4   4 -23 -23 -23 -23   4   4
  16         8   8 -27 -27 -27 -27   8   8
  17        15  15  34  34  34  34  15  15
  18        16 -18 -37  35  35 -37 -18  16
  19        17 -19 -38  36  36 -38 -19  17
 There are     1 symmetry adapted basis functions of AU  symmetry.
  20        13  13 -32 -32 -32 -32  13  13
 There are    10 symmetry adapted basis functions of B1U symmetry.
  21         1   1 -20 -20 -20 -20   1   1
  22         2   2 -21 -21 -21 -21   2   2
  23         5   5  24  24  24  24   5   5
  24         6   6 -25 -25 -25 -25   6   6
  25         9   9  28  28  28  28   9   9
  26        10  10 -29 -29 -29 -29  10  10
  27        11  11 -30 -30 -30 -30  11  11
  28        12  12 -31 -31 -31 -31  12  12
  29        16  18 -37 -35 -35 -37  18  16
  30        17  19 -38 -36 -36 -38  19  17
 There are     5 symmetry adapted basis functions of B2U symmetry.
  31         4   4  23  23  23  23   4   4
  32         8   8  27  27  27  27   8   8
  33        15  15 -34 -34 -34 -34  15  15
  34        16 -18  37 -35 -35  37 -18  16
  35        17 -19  38 -36 -36  38 -19  17
 There are     3 symmetry adapted basis functions of B3U symmetry.
  36         3   3  22  22  22  22   3   3
  37         7   7  26  26  26  26   7   7
  38        14  14 -33 -33 -33 -33  14  14
 Order= 1 2 3 4 8 7 6 5
 Reordered character table:
              1            2            3            4            5
     1            1            1            1            1            1
     2            2            1            1           -1           -1
     3            3            1           -1            1           -1
     4            4            1           -1           -1            1
     5            8            1           -1           -1            1
     6            7            1           -1            1           -1
     7            6            1            1           -1           -1
     8            5            1            1            1            1
              6            7            8            9
     1            1            1            1            1
     2            1            1           -1           -1
     3            1           -1            1           -1
     4            1           -1           -1            1
     5           -1            1            1           -1
     6           -1            1           -1            1
     7           -1           -1            1            1
     8           -1           -1           -1           -1
    38 basis functions,    72 primitive gaussians,    38 cartesian basis functions
     8 alpha electrons        8 beta electrons
       nuclear repulsion energy        33.3138809780 Hartrees.
 IS=     1 IAt=     1 ISR=     1 T=0 IP=      1 IndIP=      1 IndIPD=      0 C=  5.363452D-01  0.000000D+00                             NZ=T
 IS=     1 IAt=     1 ISR=     1 T=0 IP=      2 IndIP=      2 IndIPD=      1 C=  9.894521D-01  0.000000D+00                             NZ=T
 IS=     1 IAt=     1 ISR=     1 T=0 IP=      3 IndIP=      3 IndIPD=      2 C=  1.597283D+00  0.000000D+00                             NZ=T
 IS=     1 IAt=     1 ISR=     1 T=0 IP=      4 IndIP=      4 IndIPD=      3 C=  2.079187D+00  0.000000D+00                             NZ=T
 IS=     1 IAt=     1 ISR=     1 T=0 IP=      5 IndIP=      5 IndIPD=      4 C=  1.774174D+00  0.000000D+00                             NZ=T
 IS=     1 IAt=     1 ISR=     1 T=0 IP=      6 IndIP=      6 IndIPD=      5 C=  6.125797D-01  0.000000D+00                             NZ=T
 IS=     2 IAt=     1 ISR=     2 T=1 IP=      1 IndIP=      7 IndIPD=      0 C= -3.995564D-01  1.296082D+00                             NZ=T
 IS=     2 IAt=     1 ISR=     2 T=1 IP=      2 IndIP=      8 IndIPD=      1 C= -1.841552D-01  9.937536D-01                             NZ=T
 IS=     2 IAt=     1 ISR=     2 T=1 IP=      3 IndIP=      9 IndIPD=      2 C=  5.163903D-01  4.959527D-01                             NZ=T
 IS=     3 IAt=     1 ISR=     3 T=1 IP=      1 IndIP=     10 IndIPD=      0 C=  1.876179D-01  1.541276D-01                             NZ=T
 IS=     4 IAt=     1 ISR=     4 T=2 IP=      1 IndIP=     11 IndIPD=      1 C=  0.000000D+00  0.000000D+00  1.113825D+00  0.000000D+00 NZ=T
 IS=     5 IAt=     2 ISR=     1 T=0 IP=      1 IndIP=     12 IndIPD=      0 C=  2.149354D-01  0.000000D+00                             NZ=T
 IS=     5 IAt=     2 ISR=     1 T=0 IP=      2 IndIP=     13 IndIPD=      1 C=  3.645712D-01  0.000000D+00                             NZ=T
 IS=     5 IAt=     2 ISR=     1 T=0 IP=      3 IndIP=     14 IndIPD=      2 C=  4.150514D-01  0.000000D+00                             NZ=T
 IS=     6 IAt=     2 ISR=     2 T=0 IP=      1 IndIP=     15 IndIPD=      0 C=  1.813806D-01  0.000000D+00                             NZ=T
 IS=     7 IAt=     3 ISR=     1 T=0 IP=      1 IndIP=     16 IndIPD=      0 C=  2.149354D-01  0.000000D+00                             NZ=T
 IS=     7 IAt=     3 ISR=     1 T=0 IP=      2 IndIP=     17 IndIPD=      1 C=  3.645712D-01  0.000000D+00                             NZ=T
 IS=     7 IAt=     3 ISR=     1 T=0 IP=      3 IndIP=     18 IndIPD=      2 C=  4.150514D-01  0.000000D+00                             NZ=T
 IS=     8 IAt=     3 ISR=     2 T=0 IP=      1 IndIP=     19 IndIPD=      0 C=  1.813806D-01  0.000000D+00                             NZ=T
 IS=     9 IAt=     4 ISR=     1 T=0 IP=      1 IndIP=     20 IndIPD=      0 C=  5.363452D-01  0.000000D+00                             NZ=T
 IS=     9 IAt=     4 ISR=     1 T=0 IP=      2 IndIP=     21 IndIPD=      1 C=  9.894521D-01  0.000000D+00                             NZ=T
 IS=     9 IAt=     4 ISR=     1 T=0 IP=      3 IndIP=     22 IndIPD=      2 C=  1.597283D+00  0.000000D+00                             NZ=T
 IS=     9 IAt=     4 ISR=     1 T=0 IP=      4 IndIP=     23 IndIPD=      3 C=  2.079187D+00  0.000000D+00                             NZ=T
 IS=     9 IAt=     4 ISR=     1 T=0 IP=      5 IndIP=     24 IndIPD=      4 C=  1.774174D+00  0.000000D+00                             NZ=T
 IS=     9 IAt=     4 ISR=     1 T=0 IP=      6 IndIP=     25 IndIPD=      5 C=  6.125797D-01  0.000000D+00                             NZ=T
 IS=    10 IAt=     4 ISR=     2 T=1 IP=      1 IndIP=     26 IndIPD=      0 C= -3.995564D-01  1.296082D+00                             NZ=T
 IS=    10 IAt=     4 ISR=     2 T=1 IP=      2 IndIP=     27 IndIPD=      1 C= -1.841552D-01  9.937536D-01                             NZ=T
 IS=    10 IAt=     4 ISR=     2 T=1 IP=      3 IndIP=     28 IndIPD=      2 C=  5.163903D-01  4.959527D-01                             NZ=T
 IS=    11 IAt=     4 ISR=     3 T=1 IP=      1 IndIP=     29 IndIPD=      0 C=  1.876179D-01  1.541276D-01                             NZ=T
 IS=    12 IAt=     4 ISR=     4 T=2 IP=      1 IndIP=     30 IndIPD=      2 C=  0.000000D+00  0.000000D+00  1.113825D+00  0.000000D+00 NZ=T
 IS=    13 IAt=     5 ISR=     1 T=0 IP=      1 IndIP=     31 IndIPD=      0 C=  2.149354D-01  0.000000D+00                             NZ=T
 IS=    13 IAt=     5 ISR=     1 T=0 IP=      2 IndIP=     32 IndIPD=      1 C=  3.645712D-01  0.000000D+00                             NZ=T
 IS=    13 IAt=     5 ISR=     1 T=0 IP=      3 IndIP=     33 IndIPD=      2 C=  4.150514D-01  0.000000D+00                             NZ=T
 IS=    14 IAt=     5 ISR=     2 T=0 IP=      1 IndIP=     34 IndIPD=      0 C=  1.813806D-01  0.000000D+00                             NZ=T
 IS=    15 IAt=     6 ISR=     1 T=0 IP=      1 IndIP=     35 IndIPD=      0 C=  2.149354D-01  0.000000D+00                             NZ=T
 IS=    15 IAt=     6 ISR=     1 T=0 IP=      2 IndIP=     36 IndIPD=      1 C=  3.645712D-01  0.000000D+00                             NZ=T
 IS=    15 IAt=     6 ISR=     1 T=0 IP=      3 IndIP=     37 IndIPD=      2 C=  4.150514D-01  0.000000D+00                             NZ=T
 IS=    16 IAt=     6 ISR=     2 T=0 IP=      1 IndIP=     38 IndIPD=      0 C=  1.813806D-01  0.000000D+00                             NZ=T
 IExCor=  402 DFT=T Ex+Corr=B3LYP ExCW=0 ScaHFX=  0.200000
 ScaDFX=  0.800000  0.720000  1.000000  0.810000 ScalE2=  1.000000  1.000000
 IRadAn=      5 IRanWt=     -1 IRanGd=            0 ICorTp=0 IEmpDi=  4
 NAtoms=    6 NActive=    6 NUniq=    2 SFac= 4.00D+00 NAtFMM=   60 NAOKFM=F Big=F
 Integral buffers will be    262144 words long.
 Raffenetti 2 integral format.
 Two-electron integral symmetry is turned on.
 NPDir=0 NMtPBC=     1 NCelOv=     1 NCel=       1 NClECP=     1 NCelD=      1
         NCelK=      1 NCelE2=     1 NClLst=     1 CellRange=     0.0.
 One-electron integrals computed using PRISM.
 Entering OneElI...
 Calculate overlap and kinetic energy integrals
    NBasis =  38  MinDer = 0  MaxDer = 0
 Requested accuracy = 0.1000D-12
 Symmetry will be used
 PrmmSu-InSpLW:  IPartL=    0 NPrtUS=    1 NPrtUL=    1 DoSpLW=F IThBeg=    0 IThEnd=    0 NThAct=    1.
 PrsmSu:  NPrtUS=   1 ThrOK=F IAlg=1 NPAlg=1 LenDen=           0 ISkipM=0 DoSpLW=F IThBeg=    0 IThEnd=    0.
 Prism:   IPart=     0 DynPar=F LinDyn=F Incr=           1.
 PRISM was handed   104841034 working-precision words and   136 shell-pairs
 IPart=  0 NShTot=          48 NBatch=          24 AvBLen=         2.0
 PrSmSu:  NxtVal=              2.
 *** Overlap *** 
                1             2             3             4             5 
      1  0.100000D+01
      2  0.219059D+00  0.100000D+01
      3  0.000000D+00  0.000000D+00  0.100000D+01
      4  0.000000D+00  0.000000D+00  0.000000D+00  0.100000D+01
      5  0.000000D+00  0.000000D+00  0.000000D+00  0.000000D+00  0.100000D+01
      6  0.184261D+00  0.812273D+00  0.000000D+00  0.000000D+00  0.000000D+00
      7  0.000000D+00  0.000000D+00  0.569754D+00  0.000000D+00  0.000000D+00
      8  0.000000D+00  0.000000D+00  0.000000D+00  0.569754D+00  0.000000D+00
      9  0.000000D+00  0.000000D+00  0.000000D+00  0.000000D+00  0.569754D+00
     10  0.791027D-01  0.710235D+00  0.000000D+00  0.000000D+00  0.000000D+00
     11  0.791027D-01  0.710235D+00  0.000000D+00  0.000000D+00  0.000000D+00
     12  0.791027D-01  0.710235D+00  0.000000D+00  0.000000D+00  0.000000D+00
     13  0.000000D+00  0.000000D+00  0.000000D+00  0.000000D+00  0.000000D+00
     14  0.000000D+00  0.000000D+00  0.000000D+00  0.000000D+00  0.000000D+00
     15  0.000000D+00  0.000000D+00  0.000000D+00  0.000000D+00  0.000000D+00
     16  0.357242D-01  0.286456D+00  0.000000D+00  0.330864D+00  0.191024D+00
     17  0.944446D-01  0.485190D+00  0.000000D+00  0.230408D+00  0.133026D+00
     18  0.357242D-01  0.286456D+00  0.000000D+00 -0.330864D+00  0.191024D+00
     19  0.944446D-01  0.485190D+00  0.000000D+00 -0.230408D+00  0.133026D+00
     20  0.414761D-05  0.186288D-01  0.000000D+00  0.000000D+00 -0.410532D-01
     21  0.186288D-01  0.198573D+00  0.000000D+00  0.000000D+00 -0.277051D+00
     22  0.000000D+00  0.000000D+00  0.112609D+00  0.000000D+00  0.000000D+00
     23  0.000000D+00  0.000000D+00  0.000000D+00  0.112609D+00  0.000000D+00
     24  0.410532D-01  0.277051D+00  0.000000D+00  0.000000D+00 -0.330108D+00
     25  0.633914D-01  0.355126D+00  0.000000D+00  0.000000D+00 -0.252211D+00
     26  0.000000D+00  0.000000D+00  0.239765D+00  0.000000D+00  0.000000D+00
     27  0.000000D+00  0.000000D+00  0.000000D+00  0.239765D+00  0.000000D+00
     28  0.128582D+00  0.559800D+00  0.000000D+00  0.000000D+00 -0.174539D+00
     29  0.106574D-02  0.900838D-01  0.000000D+00  0.000000D+00 -0.138796D+00
     30  0.106574D-02  0.900838D-01  0.000000D+00  0.000000D+00 -0.138796D+00
     31  0.501384D-01  0.328488D+00  0.000000D+00  0.000000D+00 -0.409607D+00
     32  0.000000D+00  0.000000D+00  0.000000D+00  0.000000D+00  0.000000D+00
     33  0.000000D+00  0.000000D+00  0.178715D+00  0.000000D+00  0.000000D+00
     34  0.000000D+00  0.000000D+00  0.000000D+00  0.178715D+00  0.000000D+00
     35  0.534879D-04  0.887555D-02  0.000000D+00 -0.831862D-02 -0.169685D-01
     36  0.151868D-01  0.115350D+00  0.000000D+00 -0.519356D-01 -0.105940D+00
     37  0.534879D-04  0.887555D-02  0.000000D+00  0.831862D-02 -0.169685D-01
     38  0.151868D-01  0.115350D+00  0.000000D+00  0.519356D-01 -0.105940D+00
                6             7             8             9            10 
      6  0.100000D+01
      7  0.000000D+00  0.100000D+01
      8  0.000000D+00  0.000000D+00  0.100000D+01
      9  0.000000D+00  0.000000D+00  0.000000D+00  0.100000D+01
     10  0.629936D+00  0.000000D+00  0.000000D+00  0.000000D+00  0.100000D+01
     11  0.629936D+00  0.000000D+00  0.000000D+00  0.000000D+00  0.333333D+00
     12  0.629936D+00  0.000000D+00  0.000000D+00  0.000000D+00  0.333333D+00
     13  0.000000D+00  0.000000D+00  0.000000D+00  0.000000D+00  0.000000D+00
     14  0.000000D+00  0.000000D+00  0.000000D+00  0.000000D+00  0.000000D+00
     15  0.000000D+00  0.000000D+00  0.000000D+00  0.000000D+00  0.000000D+00
     16  0.385046D+00  0.000000D+00  0.447156D+00  0.258166D+00  0.124390D+00
     17  0.713549D+00  0.000000D+00  0.501665D+00  0.289637D+00  0.358639D+00
     18  0.385046D+00  0.000000D+00 -0.447156D+00  0.258166D+00  0.124390D+00
     19  0.713549D+00  0.000000D+00 -0.501665D+00  0.289637D+00  0.358639D+00
     20  0.633914D-01  0.000000D+00  0.000000D+00 -0.128582D+00  0.106574D-02
     21  0.355126D+00  0.000000D+00  0.000000D+00 -0.559800D+00  0.900838D-01
     22  0.000000D+00  0.239765D+00  0.000000D+00  0.000000D+00  0.000000D+00
     23  0.000000D+00  0.000000D+00  0.239765D+00  0.000000D+00  0.000000D+00
     24  0.252211D+00  0.000000D+00  0.000000D+00 -0.174539D+00  0.138796D+00
     25  0.575074D+00  0.000000D+00  0.000000D+00 -0.604926D+00  0.252603D+00
     26  0.000000D+00  0.575074D+00  0.000000D+00  0.000000D+00  0.000000D+00
     27  0.000000D+00  0.000000D+00  0.575074D+00  0.000000D+00  0.000000D+00
     28  0.604926D+00  0.000000D+00  0.000000D+00 -0.612533D-01  0.438875D+00
     29  0.252603D+00  0.000000D+00  0.000000D+00 -0.438875D+00  0.725558D-01
     30  0.252603D+00  0.000000D+00  0.000000D+00 -0.438875D+00  0.241853D-01
     31  0.349963D+00  0.000000D+00  0.000000D+00 -0.422919D+00  0.151080D+00
     32  0.000000D+00  0.000000D+00  0.000000D+00  0.000000D+00  0.000000D+00
     33  0.000000D+00  0.160311D+00  0.000000D+00  0.000000D+00  0.000000D+00
     34  0.000000D+00  0.000000D+00  0.160311D+00  0.000000D+00  0.000000D+00
     35  0.781616D-01  0.000000D+00 -0.903363D-01 -0.184270D+00  0.186308D-02
     36  0.271098D+00  0.000000D+00 -0.190598D+00 -0.388786D+00  0.742185D-01
     37  0.781616D-01  0.000000D+00  0.903363D-01 -0.184270D+00  0.186308D-02
     38  0.271098D+00  0.000000D+00  0.190598D+00 -0.388786D+00  0.742185D-01
               11            12            13            14            15 
     11  0.100000D+01
     12  0.333333D+00  0.100000D+01
     13  0.000000D+00  0.000000D+00  0.100000D+01
     14  0.000000D+00  0.000000D+00  0.000000D+00  0.100000D+01
     15  0.000000D+00  0.000000D+00  0.000000D+00  0.000000D+00  0.100000D+01
     16  0.384823D+00  0.211201D+00  0.000000D+00  0.000000D+00  0.260433D+00
     17  0.418153D+00  0.378477D+00  0.000000D+00  0.000000D+00  0.595134D-01
     18  0.384823D+00  0.211201D+00  0.000000D+00  0.000000D+00 -0.260433D+00
     19  0.418153D+00  0.378477D+00  0.000000D+00  0.000000D+00 -0.595134D-01
     20  0.106574D-02  0.501384D-01  0.000000D+00  0.000000D+00  0.000000D+00
     21  0.900838D-01  0.328488D+00  0.000000D+00  0.000000D+00  0.000000D+00
     22  0.000000D+00  0.000000D+00  0.000000D+00 -0.178715D+00  0.000000D+00
     23  0.000000D+00  0.000000D+00  0.000000D+00  0.000000D+00 -0.178715D+00
     24  0.138796D+00  0.409607D+00  0.000000D+00  0.000000D+00  0.000000D+00
     25  0.252603D+00  0.349963D+00  0.000000D+00  0.000000D+00  0.000000D+00
     26  0.000000D+00  0.000000D+00  0.000000D+00 -0.160311D+00  0.000000D+00
     27  0.000000D+00  0.000000D+00  0.000000D+00  0.000000D+00 -0.160311D+00
     28  0.438875D+00  0.422919D+00  0.000000D+00  0.000000D+00  0.000000D+00
     29  0.241853D-01  0.151080D+00  0.000000D+00  0.000000D+00  0.000000D+00
     30  0.725558D-01  0.151080D+00  0.000000D+00  0.000000D+00  0.000000D+00
     31  0.151080D+00  0.484559D+00  0.000000D+00  0.000000D+00  0.000000D+00
     32  0.000000D+00  0.000000D+00  0.725558D-01  0.000000D+00  0.000000D+00
     33  0.000000D+00  0.000000D+00  0.000000D+00 -0.308130D+00  0.000000D+00
     34  0.000000D+00  0.000000D+00  0.000000D+00  0.000000D+00 -0.308130D+00
     35  0.514183D-02  0.155056D-01  0.000000D+00  0.000000D+00  0.115841D-01
     36  0.865345D-01  0.125464D+00  0.000000D+00  0.000000D+00  0.435134D-01
     37  0.514183D-02  0.155056D-01  0.000000D+00  0.000000D+00 -0.115841D-01
     38  0.865345D-01  0.125464D+00  0.000000D+00  0.000000D+00 -0.435134D-01
               16            17            18            19            20 
     16  0.100000D+01
     17  0.658292D+00  0.100000D+01
     18  0.135033D-01  0.131698D+00  0.100000D+01
     19  0.131698D+00  0.371919D+00  0.658292D+00  0.100000D+01
     20  0.534879D-04  0.151868D-01  0.534879D-04  0.151868D-01  0.100000D+01
     21  0.887555D-02  0.115350D+00  0.887555D-02  0.115350D+00  0.219059D+00
     22  0.000000D+00  0.000000D+00  0.000000D+00  0.000000D+00  0.000000D+00
     23  0.831862D-02  0.519356D-01 -0.831862D-02 -0.519356D-01  0.000000D+00
     24  0.169685D-01  0.105940D+00  0.169685D-01  0.105940D+00  0.000000D+00
     25  0.781616D-01  0.271098D+00  0.781616D-01  0.271098D+00  0.184261D+00
     26  0.000000D+00  0.000000D+00  0.000000D+00  0.000000D+00  0.000000D+00
     27  0.903363D-01  0.190598D+00 -0.903363D-01 -0.190598D+00  0.000000D+00
     28  0.184270D+00  0.388786D+00  0.184270D+00  0.388786D+00  0.000000D+00
     29  0.186308D-02  0.742185D-01  0.186308D-02  0.742185D-01  0.791027D-01
     30  0.514183D-02  0.865345D-01  0.514183D-02  0.865345D-01  0.791027D-01
     31  0.155056D-01  0.125464D+00  0.155056D-01  0.125464D+00  0.791027D-01
     32  0.000000D+00  0.000000D+00  0.000000D+00  0.000000D+00  0.000000D+00
     33  0.000000D+00  0.000000D+00  0.000000D+00  0.000000D+00  0.000000D+00
     34  0.115841D-01  0.435134D-01 -0.115841D-01 -0.435134D-01  0.000000D+00
     35  0.157316D-04  0.850038D-02  0.801603D-03  0.420322D-01  0.357242D-01
     36  0.850038D-02  0.683726D-01  0.420322D-01  0.183837D+00  0.944446D-01
     37  0.801603D-03  0.420322D-01  0.157316D-04  0.850038D-02  0.357242D-01
     38  0.420322D-01  0.183837D+00  0.850038D-02  0.683726D-01  0.944446D-01
               21            22            23            24            25 
     21  0.100000D+01
     22  0.000000D+00  0.100000D+01
     23  0.000000D+00  0.000000D+00  0.100000D+01
     24  0.000000D+00  0.000000D+00  0.000000D+00  0.100000D+01
     25  0.812273D+00  0.000000D+00  0.000000D+00  0.000000D+00  0.100000D+01
     26  0.000000D+00  0.569754D+00  0.000000D+00  0.000000D+00  0.000000D+00
     27  0.000000D+00  0.000000D+00  0.569754D+00  0.000000D+00  0.000000D+00
     28  0.000000D+00  0.000000D+00  0.000000D+00  0.569754D+00  0.000000D+00
     29  0.710235D+00  0.000000D+00  0.000000D+00  0.000000D+00  0.629936D+00
     30  0.710235D+00  0.000000D+00  0.000000D+00  0.000000D+00  0.629936D+00
     31  0.710235D+00  0.000000D+00  0.000000D+00  0.000000D+00  0.629936D+00
     32  0.000000D+00  0.000000D+00  0.000000D+00  0.000000D+00  0.000000D+00
     33  0.000000D+00  0.000000D+00  0.000000D+00  0.000000D+00  0.000000D+00
     34  0.000000D+00  0.000000D+00  0.000000D+00  0.000000D+00  0.000000D+00
     35  0.286456D+00  0.000000D+00 -0.330864D+00 -0.191024D+00  0.385046D+00
     36  0.485190D+00  0.000000D+00 -0.230408D+00 -0.133026D+00  0.713549D+00
     37  0.286456D+00  0.000000D+00  0.330864D+00 -0.191024D+00  0.385046D+00
     38  0.485190D+00  0.000000D+00  0.230408D+00 -0.133026D+00  0.713549D+00
               26            27            28            29            30 
     26  0.100000D+01
     27  0.000000D+00  0.100000D+01
     28  0.000000D+00  0.000000D+00  0.100000D+01
     29  0.000000D+00  0.000000D+00  0.000000D+00  0.100000D+01
     30  0.000000D+00  0.000000D+00  0.000000D+00  0.333333D+00  0.100000D+01
     31  0.000000D+00  0.000000D+00  0.000000D+00  0.333333D+00  0.333333D+00
     32  0.000000D+00  0.000000D+00  0.000000D+00  0.000000D+00  0.000000D+00
     33  0.000000D+00  0.000000D+00  0.000000D+00  0.000000D+00  0.000000D+00
     34  0.000000D+00  0.000000D+00  0.000000D+00  0.000000D+00  0.000000D+00
     35  0.000000D+00 -0.447156D+00 -0.258166D+00  0.124390D+00  0.384823D+00
     36  0.000000D+00 -0.501665D+00 -0.289637D+00  0.358639D+00  0.418153D+00
     37  0.000000D+00  0.447156D+00 -0.258166D+00  0.124390D+00  0.384823D+00
     38  0.000000D+00  0.501665D+00 -0.289637D+00  0.358639D+00  0.418153D+00
               31            32            33            34            35 
     31  0.100000D+01
     32  0.000000D+00  0.100000D+01
     33  0.000000D+00  0.000000D+00  0.100000D+01
     34  0.000000D+00  0.000000D+00  0.000000D+00  0.100000D+01
     35  0.211201D+00  0.000000D+00  0.000000D+00  0.260433D+00  0.100000D+01
     36  0.378477D+00  0.000000D+00  0.000000D+00  0.595134D-01  0.658292D+00
     37  0.211201D+00  0.000000D+00  0.000000D+00 -0.260433D+00  0.135033D-01
     38  0.378477D+00  0.000000D+00  0.000000D+00 -0.595134D-01  0.131698D+00
               36            37            38 
     36  0.100000D+01
     37  0.131698D+00  0.100000D+01
     38  0.371919D+00  0.658292D+00  0.100000D+01
 *** Kinetic Energy *** 
                1             2             3             4             5 
      1  0.162076D+02
      2 -0.124757D+01  0.932246D+00
      3  0.000000D+00  0.000000D+00  0.217833D+01
      4  0.000000D+00  0.000000D+00  0.000000D+00  0.217833D+01
      5  0.000000D+00  0.000000D+00  0.000000D+00  0.000000D+00  0.217833D+01
      6  0.899505D-01  0.306718D+00  0.000000D+00  0.000000D+00  0.000000D+00
      7  0.000000D+00  0.000000D+00  0.376673D+00  0.000000D+00  0.000000D+00
      8  0.000000D+00  0.000000D+00  0.000000D+00  0.376673D+00  0.000000D+00
      9  0.000000D+00  0.000000D+00  0.000000D+00  0.000000D+00  0.376673D+00
     10 -0.524817D+00  0.520042D+00  0.000000D+00  0.000000D+00  0.000000D+00
     11 -0.524817D+00  0.520042D+00  0.000000D+00  0.000000D+00  0.000000D+00
     12 -0.524817D+00  0.520042D+00  0.000000D+00  0.000000D+00  0.000000D+00
     13  0.000000D+00  0.000000D+00  0.000000D+00  0.000000D+00  0.000000D+00
     14  0.000000D+00  0.000000D+00  0.000000D+00  0.000000D+00  0.000000D+00
     15  0.000000D+00  0.000000D+00  0.000000D+00  0.000000D+00  0.000000D+00
     16 -0.349069D-01  0.521630D-01  0.000000D+00  0.223644D+00  0.129121D+00
     17  0.253899D-01  0.118822D+00  0.000000D+00  0.115991D+00  0.669672D-01
     18 -0.349069D-01  0.521630D-01  0.000000D+00 -0.223644D+00  0.129121D+00
     19  0.253899D-01  0.118822D+00  0.000000D+00 -0.115991D+00  0.669672D-01
     20 -0.118491D-03 -0.300356D-01  0.000000D+00  0.000000D+00  0.306670D-01
     21 -0.300356D-01 -0.941823D-02  0.000000D+00  0.000000D+00 -0.107964D+00
     22  0.000000D+00  0.000000D+00  0.299353D-01  0.000000D+00  0.000000D+00
     23  0.000000D+00  0.000000D+00  0.000000D+00  0.299353D-01  0.000000D+00
     24 -0.306670D-01  0.107964D+00  0.000000D+00  0.000000D+00 -0.331427D+00
     25  0.892581D-02  0.605837D-01  0.000000D+00  0.000000D+00 -0.108483D+00
     26  0.000000D+00  0.000000D+00  0.103129D+00  0.000000D+00  0.000000D+00
     27  0.000000D+00  0.000000D+00  0.000000D+00  0.103129D+00  0.000000D+00
     28  0.599412D-01  0.236629D+00  0.000000D+00  0.000000D+00 -0.184946D+00
     29 -0.113588D-01 -0.700755D-01  0.000000D+00  0.000000D+00  0.470130D-01
     30 -0.113588D-01 -0.700755D-01  0.000000D+00  0.000000D+00  0.470130D-01
     31 -0.763892D-01  0.177763D+00  0.000000D+00  0.000000D+00 -0.470668D+00
     32  0.000000D+00  0.000000D+00  0.000000D+00  0.000000D+00  0.000000D+00
     33  0.000000D+00  0.000000D+00  0.135098D+00  0.000000D+00  0.000000D+00
     34  0.000000D+00  0.000000D+00  0.000000D+00  0.135098D+00  0.000000D+00
     35 -0.421497D-03 -0.166583D-01  0.000000D+00  0.115749D-01  0.236108D-01
     36 -0.455943D-02 -0.123396D-01  0.000000D+00 -0.644419D-02 -0.131450D-01
     37 -0.421497D-03 -0.166583D-01  0.000000D+00 -0.115749D-01  0.236108D-01
     38 -0.455943D-02 -0.123396D-01  0.000000D+00  0.644419D-02 -0.131450D-01
                6             7             8             9            10 
      6  0.253072D+00
      7  0.000000D+00  0.421786D+00
      8  0.000000D+00  0.000000D+00  0.421786D+00
      9  0.000000D+00  0.000000D+00  0.000000D+00  0.421786D+00
     10  0.226288D+00  0.000000D+00  0.000000D+00  0.000000D+00  0.173333D+01
     11  0.226288D+00  0.000000D+00  0.000000D+00  0.000000D+00 -0.133333D+00
     12  0.226288D+00  0.000000D+00  0.000000D+00  0.000000D+00 -0.133333D+00
     13  0.000000D+00  0.000000D+00  0.000000D+00  0.000000D+00  0.000000D+00
     14  0.000000D+00  0.000000D+00  0.000000D+00  0.000000D+00  0.000000D+00
     15  0.000000D+00  0.000000D+00  0.000000D+00  0.000000D+00  0.000000D+00
     16  0.987263D-01  0.000000D+00  0.236992D+00  0.136828D+00 -0.856269D-01
     17  0.136839D+00  0.000000D+00  0.178937D+00  0.103309D+00  0.721704D-01
     18  0.987263D-01  0.000000D+00 -0.236992D+00  0.136828D+00 -0.856269D-01
     19  0.136839D+00  0.000000D+00 -0.178937D+00  0.103309D+00  0.721704D-01
     20  0.892581D-02  0.000000D+00  0.000000D+00 -0.599412D-01 -0.113588D-01
     21  0.605837D-01  0.000000D+00  0.000000D+00 -0.236629D+00 -0.700755D-01
     22  0.000000D+00  0.103129D+00  0.000000D+00  0.000000D+00  0.000000D+00
     23  0.000000D+00  0.000000D+00  0.103129D+00  0.000000D+00  0.000000D+00
     24  0.108483D+00  0.000000D+00  0.000000D+00 -0.184946D+00 -0.470130D-01
     25  0.918561D-01  0.000000D+00  0.000000D+00 -0.198684D+00  0.264181D-01
     26  0.000000D+00  0.188879D+00  0.000000D+00  0.000000D+00  0.000000D+00
     27  0.000000D+00  0.000000D+00  0.188879D+00  0.000000D+00  0.000000D+00
     28  0.198684D+00  0.000000D+00  0.000000D+00 -0.127476D+00  0.168197D+00
     29  0.264181D-01  0.000000D+00  0.000000D+00 -0.168197D+00 -0.265109D-01
     30  0.264181D-01  0.000000D+00  0.000000D+00 -0.168197D+00 -0.604322D-01
     31  0.965831D-01  0.000000D+00  0.000000D+00 -0.203834D+00 -0.729593D-01
     32  0.000000D+00  0.000000D+00  0.000000D+00  0.000000D+00  0.000000D+00
     33  0.000000D+00  0.115532D+00  0.000000D+00  0.000000D+00  0.000000D+00
     34  0.000000D+00  0.000000D+00  0.115532D+00  0.000000D+00  0.000000D+00
     35 -0.137905D-01  0.000000D+00 -0.841306D-02 -0.171612D-01 -0.655559D-02
     36  0.872278D-02  0.000000D+00 -0.375645D-01 -0.766251D-01 -0.164497D-01
     37 -0.137905D-01  0.000000D+00  0.841306D-02 -0.171612D-01 -0.655559D-02
     38  0.872278D-02  0.000000D+00  0.375645D-01 -0.766251D-01 -0.164497D-01
               11            12            13            14            15 
     11  0.173333D+01
     12 -0.133333D+00  0.173333D+01
     13  0.000000D+00  0.000000D+00  0.280000D+01
     14  0.000000D+00  0.000000D+00  0.000000D+00  0.280000D+01
     15  0.000000D+00  0.000000D+00  0.000000D+00  0.000000D+00  0.280000D+01
     16  0.278810D+00  0.358521D-01  0.000000D+00  0.000000D+00  0.364437D+00
     17  0.119319D+00  0.878864D-01  0.000000D+00  0.000000D+00  0.471482D-01
     18  0.278810D+00  0.358521D-01  0.000000D+00  0.000000D+00 -0.364437D+00
     19  0.119319D+00  0.878864D-01  0.000000D+00  0.000000D+00 -0.471482D-01
     20 -0.113588D-01 -0.763892D-01  0.000000D+00  0.000000D+00  0.000000D+00
     21 -0.700755D-01  0.177763D+00  0.000000D+00  0.000000D+00  0.000000D+00
     22  0.000000D+00  0.000000D+00  0.000000D+00 -0.135098D+00  0.000000D+00
     23  0.000000D+00  0.000000D+00  0.000000D+00  0.000000D+00 -0.135098D+00
     24 -0.470130D-01  0.470668D+00  0.000000D+00  0.000000D+00  0.000000D+00
     25  0.264181D-01  0.965831D-01  0.000000D+00  0.000000D+00  0.000000D+00
     26  0.000000D+00  0.000000D+00  0.000000D+00 -0.115532D+00  0.000000D+00
     27  0.000000D+00  0.000000D+00  0.000000D+00  0.000000D+00 -0.115532D+00
     28  0.168197D+00  0.203834D+00  0.000000D+00  0.000000D+00  0.000000D+00
     29 -0.604322D-01 -0.729593D-01  0.000000D+00  0.000000D+00  0.000000D+00
     30 -0.265109D-01 -0.729593D-01  0.000000D+00  0.000000D+00  0.000000D+00
     31 -0.729593D-01  0.718592D+00  0.000000D+00  0.000000D+00  0.000000D+00
     32  0.000000D+00  0.000000D+00  0.508819D-01  0.000000D+00  0.000000D+00
     33  0.000000D+00  0.000000D+00  0.000000D+00 -0.520634D+00  0.000000D+00
     34  0.000000D+00  0.000000D+00  0.000000D+00  0.000000D+00 -0.520634D+00
     35 -0.117223D-01 -0.280537D-01  0.000000D+00  0.000000D+00 -0.182544D-01
     36 -0.119007D-01  0.247808D-02  0.000000D+00  0.000000D+00  0.160719D-01
     37 -0.117223D-01 -0.280537D-01  0.000000D+00  0.000000D+00  0.182544D-01
     38 -0.119007D-01  0.247808D-02  0.000000D+00  0.000000D+00 -0.160719D-01
               16            17            18            19            20 
     16  0.139568D+01
     17  0.259735D+00  0.241917D+00
     18 -0.225471D-01 -0.378147D-02  0.139568D+01
     19 -0.378147D-02  0.306462D-01  0.259735D+00  0.241917D+00
     20 -0.421497D-03 -0.455943D-02 -0.421497D-03 -0.455943D-02  0.162076D+02
     21 -0.166583D-01 -0.123396D-01 -0.166583D-01 -0.123396D-01 -0.124757D+01
     22  0.000000D+00  0.000000D+00  0.000000D+00  0.000000D+00  0.000000D+00
     23 -0.115749D-01  0.644419D-02  0.115749D-01 -0.644419D-02  0.000000D+00
     24 -0.236108D-01  0.131450D-01 -0.236108D-01  0.131450D-01  0.000000D+00
     25 -0.137905D-01  0.872278D-02 -0.137905D-01  0.872278D-02  0.899505D-01
     26  0.000000D+00  0.000000D+00  0.000000D+00  0.000000D+00  0.000000D+00
     27  0.841306D-02  0.375645D-01 -0.841306D-02 -0.375645D-01  0.000000D+00
     28  0.171612D-01  0.766251D-01  0.171612D-01  0.766251D-01  0.000000D+00
     29 -0.655559D-02 -0.164497D-01 -0.655559D-02 -0.164497D-01 -0.524817D+00
     30 -0.117223D-01 -0.119007D-01 -0.117223D-01 -0.119007D-01 -0.524817D+00
     31 -0.280537D-01  0.247808D-02 -0.280537D-01  0.247808D-02 -0.524817D+00
     32  0.000000D+00  0.000000D+00  0.000000D+00  0.000000D+00  0.000000D+00
     33  0.000000D+00  0.000000D+00  0.000000D+00  0.000000D+00  0.000000D+00
     34 -0.182544D-01  0.160719D-01  0.182544D-01 -0.160719D-01  0.000000D+00
     35 -0.922036D-04 -0.627390D-02 -0.270965D-02 -0.136894D-01 -0.349069D-01
     36 -0.627390D-02 -0.130425D-01 -0.136894D-01 -0.574309D-02  0.253899D-01
     37 -0.270965D-02 -0.136894D-01 -0.922036D-04 -0.627390D-02 -0.349069D-01
     38 -0.136894D-01 -0.574309D-02 -0.627390D-02 -0.130425D-01  0.253899D-01
               21            22            23            24            25 
     21  0.932246D+00
     22  0.000000D+00  0.217833D+01
     23  0.000000D+00  0.000000D+00  0.217833D+01
     24  0.000000D+00  0.000000D+00  0.000000D+00  0.217833D+01
     25  0.306718D+00  0.000000D+00  0.000000D+00  0.000000D+00  0.253072D+00
     26  0.000000D+00  0.376673D+00  0.000000D+00  0.000000D+00  0.000000D+00
     27  0.000000D+00  0.000000D+00  0.376673D+00  0.000000D+00  0.000000D+00
     28  0.000000D+00  0.000000D+00  0.000000D+00  0.376673D+00  0.000000D+00
     29  0.520042D+00  0.000000D+00  0.000000D+00  0.000000D+00  0.226288D+00
     30  0.520042D+00  0.000000D+00  0.000000D+00  0.000000D+00  0.226288D+00
     31  0.520042D+00  0.000000D+00  0.000000D+00  0.000000D+00  0.226288D+00
     32  0.000000D+00  0.000000D+00  0.000000D+00  0.000000D+00  0.000000D+00
     33  0.000000D+00  0.000000D+00  0.000000D+00  0.000000D+00  0.000000D+00
     34  0.000000D+00  0.000000D+00  0.000000D+00  0.000000D+00  0.000000D+00
     35  0.521630D-01  0.000000D+00 -0.223644D+00 -0.129121D+00  0.987263D-01
     36  0.118822D+00  0.000000D+00 -0.115991D+00 -0.669672D-01  0.136839D+00
     37  0.521630D-01  0.000000D+00  0.223644D+00 -0.129121D+00  0.987263D-01
     38  0.118822D+00  0.000000D+00  0.115991D+00 -0.669672D-01  0.136839D+00
               26            27            28            29            30 
     26  0.421786D+00
     27  0.000000D+00  0.421786D+00
     28  0.000000D+00  0.000000D+00  0.421786D+00
     29  0.000000D+00  0.000000D+00  0.000000D+00  0.173333D+01
     30  0.000000D+00  0.000000D+00  0.000000D+00 -0.133333D+00  0.173333D+01
     31  0.000000D+00  0.000000D+00  0.000000D+00 -0.133333D+00 -0.133333D+00
     32  0.000000D+00  0.000000D+00  0.000000D+00  0.000000D+00  0.000000D+00
     33  0.000000D+00  0.000000D+00  0.000000D+00  0.000000D+00  0.000000D+00
     34  0.000000D+00  0.000000D+00  0.000000D+00  0.000000D+00  0.000000D+00
     35  0.000000D+00 -0.236992D+00 -0.136828D+00 -0.856269D-01  0.278810D+00
     36  0.000000D+00 -0.178937D+00 -0.103309D+00  0.721704D-01  0.119319D+00
     37  0.000000D+00  0.236992D+00 -0.136828D+00 -0.856269D-01  0.278810D+00
     38  0.000000D+00  0.178937D+00 -0.103309D+00  0.721704D-01  0.119319D+00
               31            32            33            34            35 
     31  0.173333D+01
     32  0.000000D+00  0.280000D+01
     33  0.000000D+00  0.000000D+00  0.280000D+01
     34  0.000000D+00  0.000000D+00  0.000000D+00  0.280000D+01
     35  0.358521D-01  0.000000D+00  0.000000D+00  0.364437D+00  0.139568D+01
     36  0.878864D-01  0.000000D+00  0.000000D+00  0.471482D-01  0.259735D+00
     37  0.358521D-01  0.000000D+00  0.000000D+00 -0.364437D+00 -0.225471D-01
     38  0.878864D-01  0.000000D+00  0.000000D+00 -0.471482D-01 -0.378147D-02
               36            37            38 
     36  0.241917D+00
     37 -0.378147D-02  0.139568D+01
     38  0.306462D-01  0.259735D+00  0.241917D+00
 Entering OneElI...
 Calculate potential energy integrals
    NBasis =  38  MinDer = 0  MaxDer = 0
 Requested accuracy = 0.1000D-12
 Symmetry will be used
 PrmmSu-InSpLW:  IPartL=    0 NPrtUS=    1 NPrtUL=    1 DoSpLW=F IThBeg=    0 IThEnd=    0 NThAct=    1.
 PrsmSu:  NPrtUS=   1 ThrOK=F IAlg=1 NPAlg=1 LenDen=           0 ISkipM=0 DoSpLW=F IThBeg=    0 IThEnd=    0.
 Prism:   IPart=     0 DynPar=F LinDyn=F Incr=           8.
 PRISM was handed   104841526 working-precision words and   136 shell-pairs
 IPart=  0 NShTot=         288 NBatch=          48 AvBLen=         6.0
 PrSmSu:  NxtVal=              9.
 ***** Potential Energy ***** 
                1             2             3             4             5 
      1  0.379875D+02
      2  0.325290D+01  0.955203D+01
      3  0.000000D+00  0.000000D+00  0.987052D+01
      4  0.000000D+00  0.000000D+00  0.000000D+00  0.100416D+02
      5 -0.743228D-01 -0.540159D+00  0.000000D+00  0.000000D+00  0.103030D+02
      6  0.395948D+01  0.723211D+01  0.000000D+00  0.000000D+00 -0.547536D+00
      7  0.000000D+00  0.000000D+00  0.434391D+01  0.000000D+00  0.000000D+00
      8  0.000000D+00  0.000000D+00  0.000000D+00  0.448824D+01  0.000000D+00
      9 -0.124858D-01 -0.396981D+00  0.000000D+00  0.000000D+00  0.477350D+01
     10  0.112214D+01  0.611714D+01  0.000000D+00  0.000000D+00 -0.224095D+00
     11  0.112693D+01  0.626390D+01  0.000000D+00  0.000000D+00 -0.161398D+00
     12  0.113347D+01  0.647908D+01  0.000000D+00  0.000000D+00 -0.888975D+00
     13  0.000000D+00  0.000000D+00  0.000000D+00  0.000000D+00  0.000000D+00
     14  0.000000D+00  0.000000D+00 -0.388144D+00  0.000000D+00  0.000000D+00
     15  0.000000D+00  0.000000D+00  0.000000D+00 -0.279549D+00  0.000000D+00
     16  0.715644D+00  0.232379D+01  0.000000D+00  0.259048D+01  0.143538D+01
     17  0.200778D+01  0.411499D+01  0.000000D+00  0.175445D+01  0.755214D+00
     18  0.715644D+00  0.232379D+01  0.000000D+00 -0.259048D+01  0.143538D+01
     19  0.200778D+01  0.411499D+01  0.000000D+00 -0.175445D+01  0.755214D+00
     20  0.447892D-04  0.369013D+00  0.000000D+00  0.000000D+00 -0.843069D+00
     21  0.369013D+00  0.194225D+01  0.000000D+00  0.000000D+00 -0.275752D+01
     22  0.000000D+00  0.000000D+00  0.980149D+00  0.000000D+00  0.000000D+00
     23  0.000000D+00  0.000000D+00  0.000000D+00  0.989137D+00  0.000000D+00
     24  0.843069D+00  0.275752D+01  0.000000D+00  0.000000D+00 -0.336081D+01
     25  0.134665D+01  0.326645D+01  0.000000D+00  0.000000D+00 -0.246034D+01
     26  0.000000D+00  0.000000D+00  0.186190D+01  0.000000D+00  0.000000D+00
     27  0.000000D+00  0.000000D+00  0.000000D+00  0.190066D+01  0.000000D+00
     28  0.276499D+01  0.510083D+01  0.000000D+00  0.000000D+00 -0.183042D+01
     29  0.133493D-01  0.784837D+00  0.000000D+00  0.000000D+00 -0.122594D+01
     30  0.133879D-01  0.791428D+00  0.000000D+00  0.000000D+00 -0.123697D+01
     31  0.993544D+00  0.329147D+01  0.000000D+00  0.000000D+00 -0.416225D+01
     32  0.000000D+00  0.000000D+00  0.000000D+00  0.000000D+00  0.000000D+00
     33  0.000000D+00  0.000000D+00  0.158569D+01  0.000000D+00  0.000000D+00
     34  0.000000D+00  0.000000D+00  0.000000D+00  0.159621D+01  0.000000D+00
     35  0.820784D-03  0.803289D-01  0.000000D+00 -0.649139D-01 -0.156109D+00
     36  0.316965D+00  0.104126D+01  0.000000D+00 -0.401972D+00 -0.998933D+00
     37  0.820784D-03  0.803289D-01  0.000000D+00  0.649139D-01 -0.156109D+00
     38  0.316965D+00  0.104126D+01  0.000000D+00  0.401972D+00 -0.998933D+00
                6             7             8             9            10 
      6  0.758839D+01
      7  0.000000D+00  0.561337D+01
      8  0.000000D+00  0.000000D+00  0.585123D+01
      9 -0.836393D+00  0.000000D+00  0.000000D+00  0.660145D+01
     10  0.500969D+01  0.000000D+00  0.000000D+00 -0.172779D+00  0.804164D+01
     11  0.516425D+01  0.000000D+00  0.000000D+00 -0.114377D+00  0.271755D+01
     12  0.542348D+01  0.000000D+00  0.000000D+00 -0.775368D+00  0.278457D+01
     13  0.000000D+00  0.000000D+00  0.000000D+00  0.000000D+00  0.000000D+00
     14  0.000000D+00 -0.299262D+00  0.000000D+00  0.000000D+00  0.000000D+00
     15  0.000000D+00  0.000000D+00 -0.198106D+00  0.000000D+00  0.000000D+00
     16  0.269169D+01  0.000000D+00  0.283603D+01  0.157886D+01  0.962551D+00
     17  0.483239D+01  0.000000D+00  0.271238D+01  0.117531D+01  0.277078D+01
     18  0.269169D+01  0.000000D+00 -0.283603D+01  0.157886D+01  0.962551D+00
     19  0.483239D+01  0.000000D+00 -0.271238D+01  0.117531D+01  0.277078D+01
     20  0.134665D+01  0.000000D+00  0.000000D+00 -0.276499D+01  0.133493D-01
     21  0.326645D+01  0.000000D+00  0.000000D+00 -0.510083D+01  0.784837D+00
     22  0.000000D+00  0.186190D+01  0.000000D+00  0.000000D+00  0.000000D+00
     23  0.000000D+00  0.000000D+00  0.190066D+01  0.000000D+00  0.000000D+00
     24  0.246034D+01  0.000000D+00  0.000000D+00 -0.183042D+01  0.122594D+01
     25  0.459449D+01  0.000000D+00  0.000000D+00 -0.483299D+01  0.205016D+01
     26  0.000000D+00  0.337773D+01  0.000000D+00  0.000000D+00  0.000000D+00
     27  0.000000D+00  0.000000D+00  0.348056D+01  0.000000D+00  0.000000D+00
     28  0.483299D+01  0.000000D+00  0.000000D+00 -0.850982D+00  0.354843D+01
     29  0.205016D+01  0.000000D+00  0.000000D+00 -0.354843D+01  0.584842D+00
     30  0.209045D+01  0.000000D+00  0.000000D+00 -0.363528D+01  0.196079D+00
     31  0.332555D+01  0.000000D+00  0.000000D+00 -0.384220D+01  0.137151D+01
     32  0.000000D+00  0.000000D+00  0.000000D+00  0.000000D+00  0.000000D+00
     33  0.000000D+00  0.132458D+01  0.000000D+00  0.000000D+00  0.000000D+00
     34  0.000000D+00  0.000000D+00  0.132094D+01  0.000000D+00  0.000000D+00
     35  0.584356D+00  0.000000D+00 -0.596197D+00 -0.135220D+01  0.151930D-01
     36  0.202116D+01  0.000000D+00 -0.109898D+01 -0.283575D+01  0.595696D+00
     37  0.584356D+00  0.000000D+00  0.596197D+00 -0.135220D+01  0.151930D-01
     38  0.202116D+01  0.000000D+00  0.109898D+01 -0.283575D+01  0.595696D+00
               11            12            13            14            15 
     11  0.835961D+01
     12  0.285454D+01  0.886465D+01
     13  0.000000D+00  0.000000D+00  0.815265D+01
     14  0.000000D+00  0.000000D+00  0.000000D+00  0.835370D+01
     15  0.000000D+00  0.000000D+00  0.000000D+00  0.000000D+00  0.856361D+01
     16  0.296670D+01  0.159984D+01  0.000000D+00  0.000000D+00  0.192187D+01
     17  0.329696D+01  0.302885D+01  0.000000D+00  0.000000D+00  0.361831D+00
     18  0.296670D+01  0.159984D+01  0.000000D+00  0.000000D+00 -0.192187D+01
     19  0.329696D+01  0.302885D+01  0.000000D+00  0.000000D+00 -0.361831D+00
     20  0.133879D-01  0.993544D+00  0.000000D+00  0.000000D+00  0.000000D+00
     21  0.791428D+00  0.329147D+01  0.000000D+00  0.000000D+00  0.000000D+00
     22  0.000000D+00  0.000000D+00  0.000000D+00 -0.158569D+01  0.000000D+00
     23  0.000000D+00  0.000000D+00  0.000000D+00  0.000000D+00 -0.159621D+01
     24  0.123697D+01  0.416225D+01  0.000000D+00  0.000000D+00  0.000000D+00
     25  0.209045D+01  0.332555D+01  0.000000D+00  0.000000D+00  0.000000D+00
     26  0.000000D+00  0.000000D+00  0.000000D+00 -0.132458D+01  0.000000D+00
     27  0.000000D+00  0.000000D+00  0.000000D+00  0.000000D+00 -0.132094D+01
     28  0.363528D+01  0.384220D+01  0.000000D+00  0.000000D+00  0.000000D+00
     29  0.196079D+00  0.137151D+01  0.000000D+00  0.000000D+00  0.000000D+00
     30  0.592309D+00  0.138111D+01  0.000000D+00  0.000000D+00  0.000000D+00
     31  0.138111D+01  0.484824D+01  0.000000D+00  0.000000D+00  0.000000D+00
     32  0.000000D+00  0.000000D+00  0.588238D+00  0.000000D+00  0.000000D+00
     33  0.000000D+00  0.000000D+00  0.000000D+00 -0.273043D+01  0.000000D+00
     34  0.000000D+00  0.000000D+00  0.000000D+00  0.000000D+00 -0.274551D+01
     35  0.398924D-01  0.151891D+00  0.000000D+00  0.000000D+00  0.958656D-01
     36  0.694425D+00  0.119514D+01  0.000000D+00  0.000000D+00  0.351521D+00
     37  0.398924D-01  0.151891D+00  0.000000D+00  0.000000D+00 -0.958656D-01
     38  0.694425D+00  0.119514D+01  0.000000D+00  0.000000D+00 -0.351521D+00
               16            17            18            19            20 
     16  0.680356D+01
     17  0.411614D+01  0.548032D+01
     18  0.114876D+00  0.940731D+00  0.680356D+01
     19  0.940731D+00  0.241806D+01  0.411614D+01  0.548032D+01
     20  0.820784D-03  0.316965D+00  0.820784D-03  0.316965D+00  0.379875D+02
     21  0.803289D-01  0.104126D+01  0.803289D-01  0.104126D+01  0.325290D+01
     22  0.000000D+00  0.000000D+00  0.000000D+00  0.000000D+00  0.000000D+00
     23  0.649139D-01  0.401972D+00 -0.649139D-01 -0.401972D+00  0.000000D+00
     24  0.156109D+00  0.998933D+00  0.156109D+00  0.998933D+00  0.743228D-01
     25  0.584356D+00  0.202116D+01  0.584356D+00  0.202116D+01  0.395948D+01
     26  0.000000D+00  0.000000D+00  0.000000D+00  0.000000D+00  0.000000D+00
     27  0.596197D+00  0.109898D+01 -0.596197D+00 -0.109898D+01  0.000000D+00
     28  0.135220D+01  0.283575D+01  0.135220D+01  0.283575D+01  0.124858D-01
     29  0.151930D-01  0.595696D+00  0.151930D-01  0.595696D+00  0.112214D+01
     30  0.398924D-01  0.694425D+00  0.398924D-01  0.694425D+00  0.112693D+01
     31  0.151891D+00  0.119514D+01  0.151891D+00  0.119514D+01  0.113347D+01
     32  0.000000D+00  0.000000D+00  0.000000D+00  0.000000D+00  0.000000D+00
     33  0.000000D+00  0.000000D+00  0.000000D+00  0.000000D+00  0.000000D+00
     34  0.958656D-01  0.351521D+00 -0.958656D-01 -0.351521D+00  0.000000D+00
     35  0.163272D-03  0.705262D-01  0.551574D-02  0.287015D+00  0.715644D+00
     36  0.705262D-01  0.539021D+00  0.287015D+00  0.117180D+01  0.200778D+01
     37  0.551574D-02  0.287015D+00  0.163272D-03  0.705262D-01  0.715644D+00
     38  0.287015D+00  0.117180D+01  0.705262D-01  0.539021D+00  0.200778D+01
               21            22            23            24            25 
     21  0.955203D+01
     22  0.000000D+00  0.987052D+01
     23  0.000000D+00  0.000000D+00  0.100416D+02
     24  0.540159D+00  0.000000D+00  0.000000D+00  0.103030D+02
     25  0.723211D+01  0.000000D+00  0.000000D+00  0.547536D+00  0.758839D+01
     26  0.000000D+00  0.434391D+01  0.000000D+00  0.000000D+00  0.000000D+00
     27  0.000000D+00  0.000000D+00  0.448824D+01  0.000000D+00  0.000000D+00
     28  0.396981D+00  0.000000D+00  0.000000D+00  0.477350D+01  0.836393D+00
     29  0.611714D+01  0.000000D+00  0.000000D+00  0.224095D+00  0.500969D+01
     30  0.626390D+01  0.000000D+00  0.000000D+00  0.161398D+00  0.516425D+01
     31  0.647908D+01  0.000000D+00  0.000000D+00  0.888975D+00  0.542348D+01
     32  0.000000D+00  0.000000D+00  0.000000D+00  0.000000D+00  0.000000D+00
     33  0.000000D+00  0.388144D+00  0.000000D+00  0.000000D+00  0.000000D+00
     34  0.000000D+00  0.000000D+00  0.279549D+00  0.000000D+00  0.000000D+00
     35  0.232379D+01  0.000000D+00 -0.259048D+01 -0.143538D+01  0.269169D+01
     36  0.411499D+01  0.000000D+00 -0.175445D+01 -0.755214D+00  0.483239D+01
     37  0.232379D+01  0.000000D+00  0.259048D+01 -0.143538D+01  0.269169D+01
     38  0.411499D+01  0.000000D+00  0.175445D+01 -0.755214D+00  0.483239D+01
               26            27            28            29            30 
     26  0.561337D+01
     27  0.000000D+00  0.585123D+01
     28  0.000000D+00  0.000000D+00  0.660145D+01
     29  0.000000D+00  0.000000D+00  0.172779D+00  0.804164D+01
     30  0.000000D+00  0.000000D+00  0.114377D+00  0.271755D+01  0.835961D+01
     31  0.000000D+00  0.000000D+00  0.775368D+00  0.278457D+01  0.285454D+01
     32  0.000000D+00  0.000000D+00  0.000000D+00  0.000000D+00  0.000000D+00
     33  0.299262D+00  0.000000D+00  0.000000D+00  0.000000D+00  0.000000D+00
     34  0.000000D+00  0.198106D+00  0.000000D+00  0.000000D+00  0.000000D+00
     35  0.000000D+00 -0.283603D+01 -0.157886D+01  0.962551D+00  0.296670D+01
     36  0.000000D+00 -0.271238D+01 -0.117531D+01  0.277078D+01  0.329696D+01
     37  0.000000D+00  0.283603D+01 -0.157886D+01  0.962551D+00  0.296670D+01
     38  0.000000D+00  0.271238D+01 -0.117531D+01  0.277078D+01  0.329696D+01
               31            32            33            34            35 
     31  0.886465D+01
     32  0.000000D+00  0.815265D+01
     33  0.000000D+00  0.000000D+00  0.835370D+01
     34  0.000000D+00  0.000000D+00  0.000000D+00  0.856361D+01
     35  0.159984D+01  0.000000D+00  0.000000D+00  0.192187D+01  0.680356D+01
     36  0.302885D+01  0.000000D+00  0.000000D+00  0.361831D+00  0.411614D+01
     37  0.159984D+01  0.000000D+00  0.000000D+00 -0.192187D+01  0.114876D+00
     38  0.302885D+01  0.000000D+00  0.000000D+00 -0.361831D+00  0.940731D+00
               36            37            38 
     36  0.548032D+01
     37  0.940731D+00  0.680356D+01
     38  0.241806D+01  0.411614D+01  0.548032D+01
 ****** Core Hamiltonian ****** 
                1             2             3             4             5 
      1 -0.217799D+02
      2 -0.450047D+01 -0.861979D+01
      3  0.000000D+00  0.000000D+00 -0.769219D+01
      4  0.000000D+00  0.000000D+00  0.000000D+00 -0.786330D+01
      5  0.743228D-01  0.540159D+00  0.000000D+00  0.000000D+00 -0.812463D+01
      6 -0.386953D+01 -0.692539D+01  0.000000D+00  0.000000D+00  0.547536D+00
      7  0.000000D+00  0.000000D+00 -0.396724D+01  0.000000D+00  0.000000D+00
      8  0.000000D+00  0.000000D+00  0.000000D+00 -0.411156D+01  0.000000D+00
      9  0.124858D-01  0.396981D+00  0.000000D+00  0.000000D+00 -0.439683D+01
     10 -0.164695D+01 -0.559710D+01  0.000000D+00  0.000000D+00  0.224095D+00
     11 -0.165175D+01 -0.574386D+01  0.000000D+00  0.000000D+00  0.161398D+00
     12 -0.165829D+01 -0.595904D+01  0.000000D+00  0.000000D+00  0.888975D+00
     13  0.000000D+00  0.000000D+00  0.000000D+00  0.000000D+00  0.000000D+00
     14  0.000000D+00  0.000000D+00  0.388144D+00  0.000000D+00  0.000000D+00
     15  0.000000D+00  0.000000D+00  0.000000D+00  0.279549D+00  0.000000D+00
     16 -0.750551D+00 -0.227163D+01  0.000000D+00 -0.236684D+01 -0.130626D+01
     17 -0.198239D+01 -0.399616D+01  0.000000D+00 -0.163846D+01 -0.688247D+00
     18 -0.750551D+00 -0.227163D+01  0.000000D+00  0.236684D+01 -0.130626D+01
     19 -0.198239D+01 -0.399616D+01  0.000000D+00  0.163846D+01 -0.688247D+00
     20 -0.163280D-03 -0.399049D+00  0.000000D+00  0.000000D+00  0.873736D+00
     21 -0.399049D+00 -0.195167D+01  0.000000D+00  0.000000D+00  0.264956D+01
     22  0.000000D+00  0.000000D+00 -0.950213D+00  0.000000D+00  0.000000D+00
     23  0.000000D+00  0.000000D+00  0.000000D+00 -0.959201D+00  0.000000D+00
     24 -0.873736D+00 -0.264956D+01  0.000000D+00  0.000000D+00  0.302938D+01
     25 -0.133773D+01 -0.320587D+01  0.000000D+00  0.000000D+00  0.235186D+01
[...]
  34        4YZ         0.00000  -0.00862   0.00000   0.00000   0.00000
  35 5   H  1S          0.00000  -0.08368  -0.05499  -0.00600   0.00868
  36        2S          0.00000  -0.07313  -0.03968  -0.00203   0.00585
  37 6   H  1S          0.00000   0.08368  -0.05499  -0.00600   0.00868
  38        2S          0.00000   0.07313  -0.03968  -0.00203   0.00585
                          31        32        33        34        35
  31        4ZZ         0.00049
  32        4XY         0.00000   0.00000
  33        4XZ         0.00000   0.00000   0.00052
  34        4YZ         0.00000   0.00000   0.00000   0.00194
  35 5   H  1S         -0.00239   0.00000   0.00000   0.01396   0.21402
  36        2S         -0.00201   0.00000   0.00000   0.01341   0.16173
  37 6   H  1S         -0.00239   0.00000   0.00000  -0.01396  -0.03808
  38        2S         -0.00201   0.00000   0.00000  -0.01341  -0.06325
                          36        37        38
  36        2S          0.13540
  37 6   H  1S         -0.06325   0.21402
  38        2S         -0.06994   0.16173   0.13540
    Full Mulliken population analysis:
                           1         2         3         4         5
   1 1   C  1S          2.05316
   2        2S         -0.01395   0.32174
   3        2PX         0.00000   0.00000   0.32231
   4        2PY         0.00000   0.00000   0.00000   0.41076
   5        2PZ         0.00000   0.00000   0.00000   0.00000   0.42226
   6        3S         -0.02903   0.20923   0.00000   0.00000   0.00000
   7        3PX         0.00000   0.00000   0.13016   0.00000   0.00000
   8        3PY         0.00000   0.00000   0.00000   0.08686   0.00000
   9        3PZ         0.00000   0.00000   0.00000   0.00000   0.08098
  10        4XX        -0.00089  -0.01206   0.00000   0.00000   0.00000
  11        4YY        -0.00170   0.00314   0.00000   0.00000   0.00000
  12        4ZZ        -0.00150   0.00026   0.00000   0.00000   0.00000
  13        4XY         0.00000   0.00000   0.00000   0.00000   0.00000
  14        4XZ         0.00000   0.00000   0.00000   0.00000   0.00000
  15        4YZ         0.00000   0.00000   0.00000   0.00000   0.00000
  16 2   H  1S         -0.00198   0.03202   0.00000   0.07085   0.02677
  17        2S         -0.00133   0.01757   0.00000   0.04426   0.01525
  18 3   H  1S         -0.00198   0.03202   0.00000   0.07085   0.02677
  19        2S         -0.00133   0.01757   0.00000   0.04426   0.01525
  20 4   C  1S          0.00000  -0.00085   0.00000   0.00000  -0.00396
  21        2S         -0.00085   0.01514   0.00000   0.00000   0.05055
  22        2PX         0.00000   0.00000   0.03893   0.00000   0.00000
  23        2PY         0.00000   0.00000   0.00000   0.00334   0.00000
  24        2PZ        -0.00396   0.05055   0.00000   0.00000   0.10291
  25        3S         -0.00059   0.01124   0.00000   0.00000   0.03289
  26        3PX         0.00000   0.00000   0.05648   0.00000   0.00000
  27        3PY         0.00000   0.00000   0.00000   0.00194   0.00000
  28        3PZ        -0.00248   0.02644   0.00000   0.00000   0.01551
  29        4XX         0.00000  -0.00047   0.00000   0.00000  -0.00113
  30        4YY         0.00000  -0.00078   0.00000   0.00000  -0.00164
  31        4ZZ        -0.00030   0.00320   0.00000   0.00000   0.00139
  32        4XY         0.00000   0.00000   0.00000   0.00000   0.00000
  33        4XZ         0.00000   0.00000   0.00247   0.00000   0.00000
  34        4YZ         0.00000   0.00000   0.00000   0.00284   0.00000
  35 5   H  1S          0.00000  -0.00024   0.00000  -0.00015  -0.00059
  36        2S          0.00020  -0.00323   0.00000  -0.00242  -0.00661
  37 6   H  1S          0.00000  -0.00024   0.00000  -0.00015  -0.00059
  38        2S          0.00020  -0.00323   0.00000  -0.00242  -0.00661
                           6         7         8         9        10
   6        3S          0.21546
   7        3PX         0.00000   0.16191
   8        3PY         0.00000   0.00000   0.05660
   9        3PZ         0.00000   0.00000   0.00000   0.04987
  10        4XX        -0.00805   0.00000   0.00000   0.00000   0.00101
  11        4YY         0.00396   0.00000   0.00000   0.00000  -0.00003
  12        4ZZ         0.00014   0.00000   0.00000   0.00000   0.00003
  13        4XY         0.00000   0.00000   0.00000   0.00000   0.00000
  14        4XZ         0.00000   0.00000   0.00000   0.00000   0.00000
  15        4YZ         0.00000   0.00000   0.00000   0.00000   0.00000
  16 2   H  1S          0.04002   0.00000   0.03661   0.01496  -0.00071
  17        2S          0.02680   0.00000   0.03616   0.01220  -0.00071
  18 3   H  1S          0.04002   0.00000   0.03661   0.01496  -0.00071
  19        2S          0.02680   0.00000   0.03616   0.01220  -0.00071
  20 4   C  1S         -0.00059   0.00000   0.00000  -0.00248   0.00000
  21        2S          0.01124   0.00000   0.00000   0.02644  -0.00047
  22        2PX         0.00000   0.05648   0.00000   0.00000   0.00000
  23        2PY         0.00000   0.00000   0.00194   0.00000   0.00000
  24        2PZ         0.03289   0.00000   0.00000   0.01551  -0.00113
  25        3S          0.00089   0.00000   0.00000   0.02129  -0.00069
  26        3PX         0.00000   0.09496   0.00000   0.00000   0.00000
  27        3PY         0.00000   0.00000   0.00119   0.00000   0.00000
  28        3PZ         0.02129   0.00000   0.00000   0.00119  -0.00085
  29        4XX        -0.00069   0.00000   0.00000  -0.00085   0.00002
  30        4YY        -0.00169   0.00000   0.00000  -0.00158   0.00001
  31        4ZZ         0.00267   0.00000   0.00000   0.00018  -0.00007
  32        4XY         0.00000   0.00000   0.00000   0.00000   0.00000
  33        4XZ         0.00000   0.00149   0.00000   0.00000   0.00000
  34        4YZ         0.00000   0.00000   0.00092   0.00000   0.00000
  35 5   H  1S         -0.00221   0.00000  -0.00075  -0.00258   0.00000
  36        2S         -0.00609   0.00000  -0.00354  -0.00821   0.00007
  37 6   H  1S         -0.00221   0.00000  -0.00075  -0.00258   0.00000
  38        2S         -0.00609   0.00000  -0.00354  -0.00821   0.00007
                          11        12        13        14        15
  11        4YY         0.00127
  12        4ZZ        -0.00009   0.00049
  13        4XY         0.00000   0.00000   0.00000
  14        4XZ         0.00000   0.00000   0.00000   0.00052
  15        4YZ         0.00000   0.00000   0.00000   0.00000   0.00194
  16 2   H  1S          0.00315  -0.00051   0.00000   0.00000   0.00368
  17        2S          0.00240  -0.00075   0.00000   0.00000   0.00084
  18 3   H  1S          0.00315  -0.00051   0.00000   0.00000   0.00368
  19        2S          0.00240  -0.00075   0.00000   0.00000   0.00084
  20 4   C  1S          0.00000  -0.00030   0.00000   0.00000   0.00000
  21        2S         -0.00078   0.00320   0.00000   0.00000   0.00000
  22        2PX         0.00000   0.00000   0.00000   0.00247   0.00000
  23        2PY         0.00000   0.00000   0.00000   0.00000   0.00284
  24        2PZ        -0.00164   0.00139   0.00000   0.00000   0.00000
  25        3S         -0.00169   0.00267   0.00000   0.00000   0.00000
  26        3PX         0.00000   0.00000   0.00000   0.00149   0.00000
  27        3PY         0.00000   0.00000   0.00000   0.00000   0.00092
  28        3PZ        -0.00158   0.00018   0.00000   0.00000   0.00000
  29        4XX         0.00001  -0.00007   0.00000   0.00000   0.00000
  30        4YY         0.00003   0.00000   0.00000   0.00000   0.00000
  31        4ZZ         0.00000   0.00003   0.00000   0.00000   0.00000
  32        4XY         0.00000   0.00000   0.00000   0.00000   0.00000
  33        4XZ         0.00000   0.00000   0.00000   0.00017   0.00000
  34        4YZ         0.00000   0.00000   0.00000   0.00000  -0.00058
  35 5   H  1S          0.00000   0.00003   0.00000   0.00000   0.00011
  36        2S          0.00020   0.00002   0.00000   0.00000   0.00046
  37 6   H  1S          0.00000   0.00003   0.00000   0.00000   0.00011
  38        2S          0.00020   0.00002   0.00000   0.00000   0.00046
                          16        17        18        19        20
  16 2   H  1S          0.21402
  17        2S          0.10647   0.13540
  18 3   H  1S         -0.00053  -0.00842   0.21402
  19        2S         -0.00842  -0.02618   0.10647   0.13540
  20 4   C  1S          0.00000   0.00020   0.00000   0.00020   2.05316
  21        2S         -0.00024  -0.00323  -0.00024  -0.00323  -0.01395
  22        2PX         0.00000   0.00000   0.00000   0.00000   0.00000
  23        2PY        -0.00015  -0.00242  -0.00015  -0.00242   0.00000
  24        2PZ        -0.00059  -0.00661  -0.00059  -0.00661   0.00000
  25        3S         -0.00221  -0.00609  -0.00221  -0.00609  -0.02903
  26        3PX         0.00000   0.00000   0.00000   0.00000   0.00000
  27        3PY        -0.00075  -0.00354  -0.00075  -0.00354   0.00000
  28        3PZ        -0.00258  -0.00821  -0.00258  -0.00821   0.00000
  29        4XX         0.00000   0.00007   0.00000   0.00007  -0.00089
  30        4YY         0.00000   0.00020   0.00000   0.00020  -0.00170
  31        4ZZ         0.00003   0.00002   0.00003   0.00002  -0.00150
  32        4XY         0.00000   0.00000   0.00000   0.00000   0.00000
  33        4XZ         0.00000   0.00000   0.00000   0.00000   0.00000
  34        4YZ         0.00011   0.00046   0.00011   0.00046   0.00000
  35 5   H  1S          0.00000   0.00041  -0.00002  -0.00119  -0.00198
  36        2S          0.00041   0.00433  -0.00119  -0.00633  -0.00133
  37 6   H  1S         -0.00002  -0.00119   0.00000   0.00041  -0.00198
  38        2S         -0.00119  -0.00633   0.00041   0.00433  -0.00133
                          21        22        23        24        25
  21        2S          0.32174
  22        2PX         0.00000   0.32231
  23        2PY         0.00000   0.00000   0.41076
  24        2PZ         0.00000   0.00000   0.00000   0.42226
  25        3S          0.20923   0.00000   0.00000   0.00000   0.21546
  26        3PX         0.00000   0.13016   0.00000   0.00000   0.00000
  27        3PY         0.00000   0.00000   0.08686   0.00000   0.00000
  28        3PZ         0.00000   0.00000   0.00000   0.08098   0.00000
  29        4XX        -0.01206   0.00000   0.00000   0.00000  -0.00805
  30        4YY         0.00314   0.00000   0.00000   0.00000   0.00396
  31        4ZZ         0.00026   0.00000   0.00000   0.00000   0.00014
  32        4XY         0.00000   0.00000   0.00000   0.00000   0.00000
  33        4XZ         0.00000   0.00000   0.00000   0.00000   0.00000
  34        4YZ         0.00000   0.00000   0.00000   0.00000   0.00000
  35 5   H  1S          0.03202   0.00000   0.07085   0.02677   0.04002
  36        2S          0.01757   0.00000   0.04426   0.01525   0.02680
  37 6   H  1S          0.03202   0.00000   0.07085   0.02677   0.04002
  38        2S          0.01757   0.00000   0.04426   0.01525   0.02680
                          26        27        28        29        30
  26        3PX         0.16191
  27        3PY         0.00000   0.05660
  28        3PZ         0.00000   0.00000   0.04987
  29        4XX         0.00000   0.00000   0.00000   0.00101
  30        4YY         0.00000   0.00000   0.00000  -0.00003   0.00127
  31        4ZZ         0.00000   0.00000   0.00000   0.00003  -0.00009
  32        4XY         0.00000   0.00000   0.00000   0.00000   0.00000
  33        4XZ         0.00000   0.00000   0.00000   0.00000   0.00000
  34        4YZ         0.00000   0.00000   0.00000   0.00000   0.00000
  35 5   H  1S          0.00000   0.03661   0.01496  -0.00071   0.00315
  36        2S          0.00000   0.03616   0.01220  -0.00071   0.00240
  37 6   H  1S          0.00000   0.03661   0.01496  -0.00071   0.00315
  38        2S          0.00000   0.03616   0.01220  -0.00071   0.00240
                          31        32        33        34        35
  31        4ZZ         0.00049
  32        4XY         0.00000   0.00000
  33        4XZ         0.00000   0.00000   0.00052
  34        4YZ         0.00000   0.00000   0.00000   0.00194
  35 5   H  1S         -0.00051   0.00000   0.00000   0.00368   0.21402
  36        2S         -0.00075   0.00000   0.00000   0.00084   0.10647
  37 6   H  1S         -0.00051   0.00000   0.00000   0.00368  -0.00053
  38        2S         -0.00075   0.00000   0.00000   0.00084  -0.00842
                          36        37        38
  36        2S          0.13540
  37 6   H  1S         -0.00842   0.21402
  38        2S         -0.02618   0.10647   0.13540
     Gross orbital populations:
                           1
   1 1   C  1S          1.99171
   2        2S          0.70508
   3        2PX         0.55035
   4        2PY         0.73083
   5        2PZ         0.76939
   6        3S          0.57476
   7        3PX         0.44501
   8        3PY         0.28449
   9        3PZ         0.22329
  10        4XX        -0.02586
  11        4YY         0.01241
  12        4ZZ         0.00403
  13        4XY         0.00000
  14        4XZ         0.00464
  15        4YZ         0.01530
  16 2   H  1S          0.52924
  17        2S          0.32804
  18 3   H  1S          0.52924
  19        2S          0.32804
  20 4   C  1S          1.99171
  21        2S          0.70508
  22        2PX         0.55035
  23        2PY         0.73083
  24        2PZ         0.76939
  25        3S          0.57476
  26        3PX         0.44501
  27        3PY         0.28449
  28        3PZ         0.22329
  29        4XX        -0.02586
  30        4YY         0.01241
  31        4ZZ         0.00403
  32        4XY         0.00000
  33        4XZ         0.00464
  34        4YZ         0.01530
  35 5   H  1S          0.52924
  36        2S          0.32804
  37 6   H  1S          0.52924
  38        2S          0.32804
          Condensed to atoms (all electrons):
               1          2          3          4          5          6
     1  C    4.914248   0.377536   0.377536   0.687101  -0.035494  -0.035494
     2  H    0.377536   0.562365  -0.043536  -0.035494   0.005143  -0.008730
     3  H    0.377536  -0.043536   0.562365  -0.035494  -0.008730   0.005143
     4  C    0.687101  -0.035494  -0.035494   4.914248   0.377536   0.377536
     5  H   -0.035494   0.005143  -0.008730   0.377536   0.562365  -0.043536
     6  H   -0.035494  -0.008730   0.005143   0.377536  -0.043536   0.562365
 Mulliken charges:
               1
     1  C   -0.285433
     2  H    0.142716
     3  H    0.142716
     4  C   -0.285433
     5  H    0.142716
     6  H    0.142716
 Sum of Mulliken charges =   0.00000
 Mulliken charges with hydrogens summed into heavy atoms:
               1
     1  C    0.000000
     4  C    0.000000
 Electronic spatial extent (au):  <R**2>=             82.2149
 Charge=              0.0000 electrons
 Dipole moment (field-independent basis, Debye):
    X=              0.0000    Y=              0.0000    Z=              0.0000  Tot=              0.0000
 Quadrupole moment (field-independent basis, Debye-Ang):
   XX=            -15.0315   YY=            -12.1179   ZZ=            -11.9979
   XY=              0.0000   XZ=              0.0000   YZ=              0.0000
 Traceless Quadrupole moment (field-independent basis, Debye-Ang):
   XX=             -1.9824   YY=              0.9312   ZZ=              1.0512
   XY=              0.0000   XZ=              0.0000   YZ=              0.0000
 Octapole moment (field-independent basis, Debye-Ang**2):
  XXX=              0.0000  YYY=              0.0000  ZZZ=              0.0000  XYY=              0.0000
  XXY=              0.0000  XXZ=              0.0000  XZZ=              0.0000  YZZ=              0.0000
  YYZ=              0.0000  XYZ=              0.0000
 Hexadecapole moment (field-independent basis, Debye-Ang**3):
 XXXX=            -15.5785 YYYY=            -26.1785 ZZZZ=            -66.7285 XXXY=              0.0000
 XXXZ=              0.0000 YYYX=              0.0000 YYYZ=              0.0000 ZZZX=              0.0000
 ZZZY=              0.0000 XXYY=             -7.5231 XXZZ=            -14.5834 YYZZ=            -13.2611
 XXYZ=              0.0000 YYXZ=              0.0000 ZZXY=              0.0000
 N-N= 3.333304163970D+01 E-N=-2.480514486321D+02  KE= 7.776987517181D+01
 Symmetry AG   KE= 3.738162845102D+01
 Symmetry B1G  KE= 3.035900535627D-34
 Symmetry B2G  KE= 1.696918510646D-32
 Symmetry B3G  KE= 2.094313232326D+00
 Symmetry AU   KE= 3.436629979778D-34
 Symmetry B1U  KE= 3.432905992509D+01
 Symmetry B2U  KE= 1.878291599727D+00
 Symmetry B3U  KE= 2.086581963647D+00
 Orbital energies and kinetic energies (alpha):
                                 1                 2
   1         (AG)--O         -10.184279         15.872569
   2         (B1U)--O        -10.183386         15.886442
   3         (AG)--O          -0.754753          1.538451
   4         (B1U)--O         -0.577300          1.278088
   5         (B2U)--O         -0.464666          0.939146
   6         (AG)--O          -0.416400          1.279794
   7         (B3G)--O         -0.353192          1.047157
   8         (B3U)--O         -0.266642          1.043291
   9         (B2G)--V          0.018804          1.234515
  10         (AG)--V           0.122343          0.901867
  11         (B2U)--V          0.140217          0.906508
  12         (B1U)--V          0.157541          1.135289
  13         (B3G)--V          0.244052          0.964553
  14         (B1U)--V          0.332380          1.092051
  15         (AG)--V           0.480324          1.448223
  16         (B3U)--V          0.548445          1.989259
  17         (B2U)--V          0.568606          1.551893
  18         (B2G)--V          0.637278          2.265366
  19         (AG)--V           0.655228          1.527103
  20         (B1U)--V          0.699088          2.581422
  21         (B2U)--V          0.847424          2.454990
  22         (B3G)--V          0.872149          2.933478
  23         (B1U)--V          0.931650          2.761699
  24         (AG)--V           0.941026          2.568736
  25         (B1U)--V          1.105774          2.333195
  26         (B3G)--V          1.215837          2.190722
  27         (B3U)--V          1.462764          2.656303
  28         (B1G)--V          1.545165          2.650669
  29         (AU)--V           1.832927          2.975180
  30         (AG)--V           1.890200          3.086728
  31         (B2U)--V          1.987806          3.453710
  32         (AG)--V           2.088326          3.414869
  33         (B1U)--V          2.285403          3.576571
  34         (B2G)--V          2.386319          3.615092
  35         (B3G)--V          2.701371          4.133087
  36         (B1U)--V          2.705401          4.842205
  37         (AG)--V           4.096883         10.078801
  38         (B1U)--V          4.246303          9.991826
 Total kinetic energy from orbitals= 7.776987517181D+01

 Test job not archived.
 1|1|UNPC-LAB102|FOpt|RB3LYP|6-31G(d)|C2H4|11032|09-Jul-2025|0||# opt b
 3lyp/6-31g(d) pop=full gfinput iop(3/33=1)||Title Card Required||0,1|C
 ,0.,-0.6654343242,0.|H,0.9236717186,-1.2395510205,0.|H,-0.9236717186,-
 1.2395510205,0.|C,0.,0.6654343242,0.|H,-0.9236717186,1.2395510205,0.|H
 ,0.9236717186,1.2395510205,0.||Version=IA32W-G16RevA.03|State=1-AG|HF=
 -78.5874587|RMSD=8.690e-009|RMSF=5.334e-005|Dipole=0.,0.,0.|Quadrupole
 =0.6922919,0.7815385,-1.4738305,0.,0.,0.|PG=D02H [C2"(C1.C1),SG(H4)]||
 @


 "MATHEMATICS IS THE ART OF GIVING THE SAME NAME
 TO DIFFERENT THINGS."
                    - H. POINCARE
 Job cpu time:       0 days  0 hours  0 minutes  7.0 seconds.
 Elapsed time:       0 days  0 hours  0 minutes  4.0 seconds.
 File lengths (MBytes):  RWF=      5 Int=      0 D2E=      0 Chk=      1 Scr=      1
 Normal termination of Gaussian 16 at Wed Jul 09 11:25:18 2025.
