Title Card Required                                                     
SP        UB3LYP                                                      6-31G(d)            
Number of atoms                            I               12
Info1-9                                    I   N=           9
          20          19           0           0           0         111
           1          18        -502
Full Title                                 C   N=           2
Title Card Required     
Route                                      C   N=           4
# b3lyp/6-31g(d) pop=full gfinput iop(3/33=1)   
Charge                                     I               -1
Multiplicity                               I                2
Number of electrons                        I               43
Number of alpha electrons                  I               22
Number of beta electrons                   I               21
Number of basis functions                  I              102
Number of independent functions            I              102
Number of point charges in /Mol/           I                0
Number of translation vectors              I                0
Atomic numbers                             I   N=          12
           6           6           6           6           6           6
           1           1           1           1           1           1
Nuclear charges                            R   N=          12
  6.00000000E+00  6.00000000E+00  6.00000000E+00  6.00000000E+00  6.00000000E+00
  6.00000000E+00  1.00000000E+00  1.00000000E+00  1.00000000E+00  1.00000000E+00
  1.00000000E+00  1.00000000E+00
Current cartesian coordinates              R   N=          36
 -8.15900888E-10  2.64826219E+00  0.00000000E+00  2.29346233E+00  1.32413110E+00
  0.00000000E+00  2.29346233E+00 -1.32413109E+00  0.00000000E+00  8.15900564E-10
 -2.64826219E+00  0.00000000E+00 -2.29346233E+00 -1.32413110E+00  0.00000000E+00
 -2.29346233E+00  1.32413109E+00  0.00000000E+00 -1.43885932E-09  4.67026914E+00
  0.00000000E+00  4.04457172E+00  2.33513457E+00  0.00000000E+00  4.04457172E+00
 -2.33513457E+00  0.00000000E+00  1.43885875E-09 -4.67026914E+00  0.00000000E+00
 -4.04457172E+00 -2.33513457E+00  0.00000000E+00 -4.04457172E+00  2.33513457E+00
  0.00000000E+00
Number of symbols in /Mol/                 I                0
Force Field                                I                0
Atom Types                                 C   N=          12
                                                            
                                                            
                        
Int Atom Types                             I   N=          12
           0           0           0           0           0           0
           0           0           0           0           0           0
MM charges                                 R   N=          12
  0.00000000E+00  0.00000000E+00  0.00000000E+00  0.00000000E+00  0.00000000E+00
  0.00000000E+00  0.00000000E+00  0.00000000E+00  0.00000000E+00  0.00000000E+00
  0.00000000E+00  0.00000000E+00
Integer atomic weights                     I   N=          12
          12          12          12          12          12          12
           1           1           1           1           1           1
Real atomic weights                        R   N=          12
  1.20000000E+01  1.20000000E+01  1.20000000E+01  1.20000000E+01  1.20000000E+01
  1.20000000E+01  1.00782504E+00  1.00782504E+00  1.00782504E+00  1.00782504E+00
  1.00782504E+00  1.00782504E+00
Atom fragment info                         I   N=          12
           0           0           0           0           0           0
           0           0           0           0           0           0
Atom residue num                           I   N=          12
           0           0           0           0           0           0
           0           0           0           0           0           0
Nuclear spins                              I   N=          12
           0           0           0           0           0           0
           1           1           1           1           1           1
Nuclear ZEff                               R   N=          12
 -3.60000000E+00 -3.60000000E+00 -3.60000000E+00 -3.60000000E+00 -3.60000000E+00
 -3.60000000E+00 -1.00000000E+00 -1.00000000E+00 -1.00000000E+00 -1.00000000E+00
 -1.00000000E+00 -1.00000000E+00
Nuclear ZNuc                               R   N=          12
  6.00000000E+00  6.00000000E+00  6.00000000E+00  6.00000000E+00  6.00000000E+00
  6.00000000E+00  1.00000000E+00  1.00000000E+00  1.00000000E+00  1.00000000E+00
  1.00000000E+00  1.00000000E+00
Nuclear QMom                               R   N=          12
  0.00000000E+00  0.00000000E+00  0.00000000E+00  0.00000000E+00  0.00000000E+00
  0.00000000E+00  0.00000000E+00  0.00000000E+00  0.00000000E+00  0.00000000E+00
  0.00000000E+00  0.00000000E+00
Nuclear GFac                               R   N=          12
  0.00000000E+00  0.00000000E+00  0.00000000E+00  0.00000000E+00  0.00000000E+00
  0.00000000E+00  2.79284600E+00  2.79284600E+00  2.79284600E+00  2.79284600E+00
  2.79284600E+00  2.79284600E+00
MicOpt                                     I   N=          12
          -1          -1          -1          -1          -1          -1
          -1          -1          -1          -1          -1          -1
Number of residues                         I                0
Number of secondary structures             I                0
SymInf integers                            I   N=          26
           4           8           1           1           1          -1
          -1           1          -1           1          -1           1
          -1          -1          -1           1           1           1
          -1           1           1           1          -1          -1
          -1          -1
RotTr to input orientation                 R   N=          12
  1.00000000E+00  3.08089165E-10  0.00000000E+00 -3.08089165E-10  1.00000000E+00
  0.00000000E+00  0.00000000E+00  0.00000000E+00  1.00000000E+00  0.00000000E+00
  4.22942105E-17  0.00000000E+00
Number of contracted shells                I               36
Number of primitive shells                 I               90
Pure/Cartesian d shells                    I                1
Pure/Cartesian f shells                    I                0
Highest angular momentum                   I                2
Largest degree of contraction              I                6
Shell types                                I   N=          36
           0          -1          -1           2           0          -1
          -1           2           0          -1          -1           2
           0          -1          -1           2           0          -1
          -1           2           0          -1          -1           2
           0           0           0           0           0           0
           0           0           0           0           0           0
Number of primitives per shell             I   N=          36
           6           3           1           1           6           3
           1           1           6           3           1           1
           6           3           1           1           6           3
           1           1           6           3           1           1
           3           1           3           1           3           1
           3           1           3           1           3           1
Shell to atom map                          I   N=          36
           1           1           1           1           2           2
           2           2           3           3           3           3
           4           4           4           4           5           5
           5           5           6           6           6           6
           7           7           8           8           9           9
          10          10          11          11          12          12
Primitive exponents                        R   N=          90
  3.04752488E+03  4.57369518E+02  1.03948685E+02  2.92101553E+01  9.28666296E+00
  3.16392696E+00  7.86827235E+00  1.88128854E+00  5.44249258E-01  1.68714478E-01
  8.00000000E-01  3.04752488E+03  4.57369518E+02  1.03948685E+02  2.92101553E+01
  9.28666296E+00  3.16392696E+00  7.86827235E+00  1.88128854E+00  5.44249258E-01
  1.68714478E-01  8.00000000E-01  3.04752488E+03  4.57369518E+02  1.03948685E+02
  2.92101553E+01  9.28666296E+00  3.16392696E+00  7.86827235E+00  1.88128854E+00
  5.44249258E-01  1.68714478E-01  8.00000000E-01  3.04752488E+03  4.57369518E+02
  1.03948685E+02  2.92101553E+01  9.28666296E+00  3.16392696E+00  7.86827235E+00
  1.88128854E+00  5.44249258E-01  1.68714478E-01  8.00000000E-01  3.04752488E+03
  4.57369518E+02  1.03948685E+02  2.92101553E+01  9.28666296E+00  3.16392696E+00
  7.86827235E+00  1.88128854E+00  5.44249258E-01  1.68714478E-01  8.00000000E-01
  3.04752488E+03  4.57369518E+02  1.03948685E+02  2.92101553E+01  9.28666296E+00
  3.16392696E+00  7.86827235E+00  1.88128854E+00  5.44249258E-01  1.68714478E-01
  8.00000000E-01  1.87311370E+01  2.82539436E+00  6.40121692E-01  1.61277759E-01
  1.87311370E+01  2.82539436E+00  6.40121692E-01  1.61277759E-01  1.87311370E+01
  2.82539436E+00  6.40121692E-01  1.61277759E-01  1.87311370E+01  2.82539436E+00
  6.40121692E-01  1.61277759E-01  1.87311370E+01  2.82539436E+00  6.40121692E-01
  1.61277759E-01  1.87311370E+01  2.82539436E+00  6.40121692E-01  1.61277759E-01
Contraction coefficients                   R   N=          90
  1.83473713E-03  1.40373228E-02  6.88426223E-02  2.32184443E-01  4.67941348E-01
  3.62311985E-01 -1.19332420E-01 -1.60854152E-01  1.14345644E+00  1.00000000E+00
  1.00000000E+00  1.83473713E-03  1.40373228E-02  6.88426223E-02  2.32184443E-01
  4.67941348E-01  3.62311985E-01 -1.19332420E-01 -1.60854152E-01  1.14345644E+00
  1.00000000E+00  1.00000000E+00  1.83473713E-03  1.40373228E-02  6.88426223E-02
  2.32184443E-01  4.67941348E-01  3.62311985E-01 -1.19332420E-01 -1.60854152E-01
  1.14345644E+00  1.00000000E+00  1.00000000E+00  1.83473713E-03  1.40373228E-02
  6.88426223E-02  2.32184443E-01  4.67941348E-01  3.62311985E-01 -1.19332420E-01
 -1.60854152E-01  1.14345644E+00  1.00000000E+00  1.00000000E+00  1.83473713E-03
  1.40373228E-02  6.88426223E-02  2.32184443E-01  4.67941348E-01  3.62311985E-01
 -1.19332420E-01 -1.60854152E-01  1.14345644E+00  1.00000000E+00  1.00000000E+00
  1.83473713E-03  1.40373228E-02  6.88426223E-02  2.32184443E-01  4.67941348E-01
  3.62311985E-01 -1.19332420E-01 -1.60854152E-01  1.14345644E+00  1.00000000E+00
  1.00000000E+00  3.34946043E-02  2.34726953E-01  8.13757326E-01  1.00000000E+00
  3.34946043E-02  2.34726953E-01  8.13757326E-01  1.00000000E+00  3.34946043E-02
  2.34726953E-01  8.13757326E-01  1.00000000E+00  3.34946043E-02  2.34726953E-01
  8.13757326E-01  1.00000000E+00  3.34946043E-02  2.34726953E-01  8.13757326E-01
  1.00000000E+00  3.34946043E-02  2.34726953E-01  8.13757326E-01  1.00000000E+00
P(S=P) Contraction coefficients            R   N=          90
  0.00000000E+00  0.00000000E+00  0.00000000E+00  0.00000000E+00  0.00000000E+00
  0.00000000E+00  6.89990666E-02  3.16423961E-01  7.44308291E-01  1.00000000E+00
  0.00000000E+00  0.00000000E+00  0.00000000E+00  0.00000000E+00  0.00000000E+00
  0.00000000E+00  0.00000000E+00  6.89990666E-02  3.16423961E-01  7.44308291E-01
  1.00000000E+00  0.00000000E+00  0.00000000E+00  0.00000000E+00  0.00000000E+00
  0.00000000E+00  0.00000000E+00  0.00000000E+00  6.89990666E-02  3.16423961E-01
  7.44308291E-01  1.00000000E+00  0.00000000E+00  0.00000000E+00  0.00000000E+00
  0.00000000E+00  0.00000000E+00  0.00000000E+00  0.00000000E+00  6.89990666E-02
  3.16423961E-01  7.44308291E-01  1.00000000E+00  0.00000000E+00  0.00000000E+00
  0.00000000E+00  0.00000000E+00  0.00000000E+00  0.00000000E+00  0.00000000E+00
  6.89990666E-02  3.16423961E-01  7.44308291E-01  1.00000000E+00  0.00000000E+00
  0.00000000E+00  0.00000000E+00  0.00000000E+00  0.00000000E+00  0.00000000E+00
  0.00000000E+00  6.89990666E-02  3.16423961E-01  7.44308291E-01  1.00000000E+00
  0.00000000E+00  0.00000000E+00  0.00000000E+00  0.00000000E+00  0.00000000E+00
  0.00000000E+00  0.00000000E+00  0.00000000E+00  0.00000000E+00  0.00000000E+00
  0.00000000E+00  0.00000000E+00  0.00000000E+00  0.00000000E+00  0.00000000E+00
  0.00000000E+00  0.00000000E+00  0.00000000E+00  0.00000000E+00  0.00000000E+00
  0.00000000E+00  0.00000000E+00  0.00000000E+00  0.00000000E+00  0.00000000E+00
Coordinates of each shell                  R   N=         108
  0.00000000E+00  2.64826219E+00  0.00000000E+00  0.00000000E+00  2.64826219E+00
  0.00000000E+00  0.00000000E+00  2.64826219E+00  0.00000000E+00  0.00000000E+00
  2.64826219E+00  0.00000000E+00  2.29346233E+00  1.32413110E+00  0.00000000E+00
  2.29346233E+00  1.32413110E+00  0.00000000E+00  2.29346233E+00  1.32413110E+00
  0.00000000E+00  2.29346233E+00  1.32413110E+00  0.00000000E+00  2.29346233E+00
 -1.32413110E+00  0.00000000E+00  2.29346233E+00 -1.32413110E+00  0.00000000E+00
  2.29346233E+00 -1.32413110E+00  0.00000000E+00  2.29346233E+00 -1.32413110E+00
  0.00000000E+00 -3.24307871E-16 -2.64826219E+00  0.00000000E+00 -3.24307871E-16
 -2.64826219E+00  0.00000000E+00 -3.24307871E-16 -2.64826219E+00  0.00000000E+00
 -3.24307871E-16 -2.64826219E+00  0.00000000E+00 -2.29346233E+00 -1.32413110E+00
  0.00000000E+00 -2.29346233E+00 -1.32413110E+00  0.00000000E+00 -2.29346233E+00
 -1.32413110E+00  0.00000000E+00 -2.29346233E+00 -1.32413110E+00  0.00000000E+00
 -2.29346233E+00  1.32413110E+00  0.00000000E+00 -2.29346233E+00  1.32413110E+00
  0.00000000E+00 -2.29346233E+00  1.32413110E+00  0.00000000E+00 -2.29346233E+00
  1.32413110E+00  0.00000000E+00  0.00000000E+00  4.67026914E+00  0.00000000E+00
  0.00000000E+00  4.67026914E+00  0.00000000E+00  4.04457172E+00  2.33513457E+00
  0.00000000E+00  4.04457172E+00  2.33513457E+00  0.00000000E+00  4.04457172E+00
 -2.33513457E+00  0.00000000E+00  4.04457172E+00 -2.33513457E+00  0.00000000E+00
 -5.71924127E-16 -4.67026914E+00  0.00000000E+00 -5.71924127E-16 -4.67026914E+00
  0.00000000E+00 -4.04457172E+00 -2.33513457E+00  0.00000000E+00 -4.04457172E+00
 -2.33513457E+00  0.00000000E+00 -4.04457172E+00  2.33513457E+00  0.00000000E+00
 -4.04457172E+00  2.33513457E+00  0.00000000E+00
Num ILSW                                   I              100
ILSW                                       I   N=         100
           1           1           0           0           2           0
           0           0           0           0         402          -1
           5           0           0           0           0           0
           0           0           1           0           0           0
           1           0           0           0           0           0
           0           0      100000           0          -1           0
           0           0           0           0           0           0
           0           0           0           1           0           0
           0 -2000000000           1           0           0           0
           0           1           4          52           0           0
           0           0           5           0           0           0
           0           0           0           0           0           1
           0           0           0           0           0           0
           0           0           0           0           0           0
           0           0           0           0           0           0
           0           0           0           0           0           0
           0           0           0           0
Num RLSW                                   I               52
RLSW                                       R   N=          52
  8.00000000E-01  7.20000000E-01  1.00000000E+00  8.10000000E-01  2.00000000E-01
  0.00000000E+00  0.00000000E+00  1.00000000E+00  0.00000000E+00  0.00000000E+00
  0.00000000E+00  0.00000000E+00  1.00000000E+00  0.00000000E+00  0.00000000E+00
  0.00000000E+00  0.00000000E+00  1.00000000E+00  0.00000000E+00  0.00000000E+00
  0.00000000E+00  0.00000000E+00  1.00000000E+00  0.00000000E+00  0.00000000E+00
  0.00000000E+00  0.00000000E+00  1.00000000E+00  0.00000000E+00  0.00000000E+00
  0.00000000E+00  0.00000000E+00  1.00000000E+00  0.00000000E+00  0.00000000E+00
  0.00000000E+00  0.00000000E+00  0.00000000E+00  1.00000000E+00  1.00000000E+00
  0.00000000E+00  1.00000000E+00  0.00000000E+00  0.00000000E+00  0.00000000E+00
  0.00000000E+00  0.00000000E+00  0.00000000E+00  0.00000000E+00  0.00000000E+00
  0.00000000E+00  0.00000000E+00
MxBond                                     I                3
NBond                                      I   N=          12
           3           3           3           3           3           3
           1           1           1           1           1           1
IBond                                      I   N=          36
           2           6           7           1           3           8
           2           4           9           3           5          10
           4           6          11           1           5          12
           1           0           0           2           0           0
           3           0           0           4           0           0
           5           0           0           6           0           0
RBond                                      R   N=          36
  1.50000000E+00  1.50000000E+00  1.00000000E+00  1.50000000E+00  1.50000000E+00
  1.00000000E+00  1.50000000E+00  1.50000000E+00  1.00000000E+00  1.50000000E+00
  1.50000000E+00  1.00000000E+00  1.50000000E+00  1.50000000E+00  1.00000000E+00
  1.50000000E+00  1.50000000E+00  1.00000000E+00  1.00000000E+00  0.00000000E+00
  0.00000000E+00  1.00000000E+00  0.00000000E+00  0.00000000E+00  1.00000000E+00
  0.00000000E+00  0.00000000E+00  1.00000000E+00  0.00000000E+00  0.00000000E+00
  1.00000000E+00  0.00000000E+00  0.00000000E+00  1.00000000E+00  0.00000000E+00
  0.00000000E+00
Virial Ratio                               R      2.007729088215401E+00
SCF Energy                                 R     -2.321631237516494E+02
Total Energy                               R     -2.321631237516494E+02
S**2                                       R      7.614116183598796E-01
S**2 after annihilation                    R      7.500880720525930E-01
RMS Density                                R      7.422555342794229E-09
Job Status                                 I                1
Nuclear derivative order                   I                0
External E-field                           R   N=          35
  0.00000000E+00  0.00000000E+00  0.00000000E+00  0.00000000E+00  0.00000000E+00
  0.00000000E+00  0.00000000E+00  0.00000000E+00  0.00000000E+00  0.00000000E+00
  0.00000000E+00  0.00000000E+00  0.00000000E+00  0.00000000E+00  0.00000000E+00
  0.00000000E+00  0.00000000E+00  0.00000000E+00  0.00000000E+00  0.00000000E+00
  0.00000000E+00  0.00000000E+00  0.00000000E+00  0.00000000E+00  0.00000000E+00
  0.00000000E+00  0.00000000E+00  0.00000000E+00  0.00000000E+00  0.00000000E+00
  0.00000000E+00  0.00000000E+00  0.00000000E+00  0.00000000E+00  0.00000000E+00
IOpCl                                      I                1
IROHF                                      I                0
Alpha Orbital Energies                     R   N=         102
 -9.96577162E+00 -9.96576495E+00 -9.93828455E+00 -9.93827043E+00 -9.93778768E+00
 -9.93778032E+00 -6.12050133E-01 -5.14914671E-01 -5.10113284E-01 -3.77598433E-01
 -3.76408195E-01 -2.99865822E-01 -2.53270188E-01 -2.03579248E-01 -2.00625780E-01
 -1.92568345E-01 -1.37608325E-01 -1.20170395E-01 -1.18000536E-01 -3.10807433E-02
 -2.99216273E-02  1.65572587E-01  2.23000574E-01  2.83023080E-01  3.28559076E-01
  3.35369824E-01  3.64229313E-01  3.67124920E-01  3.68271860E-01  3.69313889E-01
  5.10523216E-01  5.11915527E-01  5.28531557E-01  5.30896990E-01  6.85354370E-01
  7.41785873E-01  7.59993545E-01  7.68419663E-01  7.71295444E-01  8.05480627E-01
  8.11384612E-01  8.13185264E-01  8.15338086E-01  8.21490849E-01  8.44119535E-01
  8.44410203E-01  8.71262253E-01  8.75809288E-01  9.46663529E-01  1.05218353E+00
  1.05384059E+00  1.06153090E+00  1.07694906E+00  1.08324379E+00  1.14737525E+00
  1.14855199E+00  1.15919092E+00  1.16729779E+00  1.28525329E+00  1.28535641E+00
  1.35498064E+00  1.35953932E+00  1.40678923E+00  1.49346162E+00  1.62571042E+00
  1.65462454E+00  1.65485558E+00  1.71368464E+00  1.71663462E+00  1.74068999E+00
  1.74448661E+00  1.98604313E+00  2.01528160E+00  2.10085824E+00  2.10939984E+00
  2.21401787E+00  2.22063601E+00  2.28810158E+00  2.29312910E+00  2.37549585E+00
  2.37564478E+00  2.37569469E+00  2.37635501E+00  2.53371309E+00  2.53557079E+00
  2.54191544E+00  2.77474411E+00  2.77487290E+00  2.87682661E+00  2.93441281E+00
  2.93964290E+00  2.94263740E+00  2.94955794E+00  2.98610045E+00  3.23971035E+00
  3.63909548E+00  4.31535702E+00  4.34644982E+00  4.35491744E+00  4.55828727E+00
  4.56639000E+00  4.89428877E+00
Beta Orbital Energies                      R   N=         102
 -9.96722292E+00 -9.96721596E+00 -9.93398523E+00 -9.93397418E+00 -9.93346084E+00
 -9.93345821E+00 -6.05101435E-01 -5.10898874E-01 -4.98597275E-01 -3.76255597E-01
 -3.64179071E-01 -2.97424986E-01 -2.48211603E-01 -1.99929966E-01 -1.99588530E-01
 -1.89416521E-01 -1.18933969E-01 -1.17781877E-01 -1.15543021E-01 -1.81981179E-02
  4.64762471E-03  2.26973450E-01  2.51172784E-01  2.84357484E-01  3.28543927E-01
  3.37887430E-01  3.66169495E-01  3.72520059E-01  3.73304123E-01  3.97410419E-01
  5.13188568E-01  5.16256581E-01  5.30458449E-01  5.34989674E-01  6.87395483E-01
  7.52682644E-01  7.68691862E-01  7.70841029E-01  7.74514146E-01  8.09071958E-01
  8.15490734E-01  8.24894478E-01  8.25486924E-01  8.32756146E-01  8.48838591E-01
  8.50245265E-01  8.80122161E-01  8.96744575E-01  9.61729640E-01  1.05209272E+00
  1.05557404E+00  1.06609618E+00  1.07908030E+00  1.08700838E+00  1.15152031E+00
  1.15368703E+00  1.16195891E+00  1.16970890E+00  1.28722234E+00  1.29725951E+00
  1.35640633E+00  1.36258318E+00  1.41223279E+00  1.50601057E+00  1.63696550E+00
  1.65536106E+00  1.66090990E+00  1.72481428E+00  1.73178619E+00  1.74562607E+00
  1.76442694E+00  2.00187818E+00  2.01695449E+00  2.10237403E+00  2.11526896E+00
  2.21518870E+00  2.22788874E+00  2.29424841E+00  2.29671460E+00  2.37971093E+00
  2.38217162E+00  2.39468461E+00  2.39726895E+00  2.53997840E+00  2.55140628E+00
  2.56016215E+00  2.77806022E+00  2.79382403E+00  2.89163838E+00  2.93522455E+00
  2.94314051E+00  2.94443002E+00  2.95355806E+00  2.99934922E+00  3.24222240E+00
  3.64262696E+00  4.32126636E+00  4.34849002E+00  4.36555216E+00  4.56087974E+00
  4.57777631E+00  4.90124201E+00
Alpha MO coefficients                      R   N=       10404
  7.02034528E-01  3.51000376E-02  0.00000000E+00  6.95844798E-05  0.00000000E+00
 -1.62388460E-02  0.00000000E+00  4.73431555E-03  0.00000000E+00 -6.42308966E-03
 -6.43340655E-03 -6.61163664E-03  0.00000000E+00  0.00000000E+00  0.00000000E+00
  6.39407899E-03 -2.17791540E-04  2.20907588E-04 -1.08989315E-04  0.00000000E+00
  8.78693363E-03 -4.54037804E-03 -1.26766543E-03  0.00000000E+00 -3.11260413E-04
 -3.36873213E-04 -2.39841048E-04  6.90596079E-05  0.00000000E+00  0.00000000E+00
 -6.39407899E-03  2.17791540E-04 -2.20907588E-04 -1.08989315E-04  0.00000000E+00
 -8.78693363E-03  4.54037804E-03 -1.26766543E-03  0.00000000E+00  3.11260413E-04
  3.36873213E-04  2.39841048E-04  6.90596079E-05  0.00000000E+00  0.00000000E+00
 -7.02034528E-01 -3.51000376E-02  0.00000000E+00  6.95844798E-05  0.00000000E+00
  1.62388460E-02  0.00000000E+00  4.73431555E-03  0.00000000E+00  6.42308966E-03
  6.43340655E-03  6.61163664E-03  0.00000000E+00  0.00000000E+00  0.00000000E+00
 -6.39407899E-03  2.17791540E-04  2.20907588E-04 -1.08989315E-04  0.00000000E+00
 -8.78693363E-03 -4.54037804E-03 -1.26766543E-03  0.00000000E+00  3.11260413E-04
  3.36873213E-04  2.39841048E-04 -6.90596079E-05  0.00000000E+00  0.00000000E+00
  6.39407899E-03 -2.17791540E-04 -2.20907588E-04 -1.08989315E-04  0.00000000E+00
  8.78693363E-03  4.54037804E-03 -1.26766543E-03  0.00000000E+00 -3.11260413E-04
 -3.36873213E-04 -2.39841048E-04 -6.90596079E-05  0.00000000E+00  0.00000000E+00
 -4.21616853E-04  4.29208541E-04  7.53322470E-05  9.43237316E-04 -7.53322470E-05
 -9.43237316E-04  4.21616853E-04 -4.29208541E-04 -7.53322470E-05 -9.43237316E-04
  7.53322470E-05  9.43237316E-04  7.01964446E-01  3.47330554E-02  0.00000000E+00
  1.13846222E-04  0.00000000E+00 -1.06992477E-02  0.00000000E+00  1.37130580E-03
  0.00000000E+00 -6.40169789E-03 -6.45581836E-03 -6.74797650E-03  0.00000000E+00
  0.00000000E+00  0.00000000E+00  6.55645283E-03 -4.06825082E-05  2.23132328E-04
 -5.27152584E-05  0.00000000E+00  3.01744655E-03 -1.43599480E-03  3.53730066E-04
  0.00000000E+00 -2.70481761E-04 -2.27634098E-04 -1.81464028E-04  1.04756398E-04
  0.00000000E+00  0.00000000E+00  6.55645283E-03 -4.06825082E-05  2.23132328E-04
  5.27152584E-05  0.00000000E+00  3.01744655E-03 -1.43599480E-03 -3.53730066E-04
  0.00000000E+00 -2.70481761E-04 -2.27634098E-04 -1.81464028E-04 -1.04756398E-04
  0.00000000E+00  0.00000000E+00  7.01964446E-01  3.47330554E-02  0.00000000E+00
 -1.13846222E-04  0.00000000E+00 -1.06992477E-02  0.00000000E+00 -1.37130580E-03
  0.00000000E+00 -6.40169789E-03 -6.45581836E-03 -6.74797650E-03  0.00000000E+00
  0.00000000E+00  0.00000000E+00  6.55645283E-03 -4.06825082E-05 -2.23132328E-04
  5.27152584E-05  0.00000000E+00  3.01744655E-03  1.43599480E-03 -3.53730066E-04
  0.00000000E+00 -2.70481761E-04 -2.27634098E-04 -1.81464028E-04  1.04756398E-04
  0.00000000E+00  0.00000000E+00  6.55645283E-03 -4.06825082E-05 -2.23132328E-04
 -5.27152584E-05  0.00000000E+00  3.01744655E-03  1.43599480E-03  3.53730066E-04
  0.00000000E+00 -2.70481761E-04 -2.27634098E-04 -1.81464028E-04 -1.04756398E-04
  0.00000000E+00  0.00000000E+00 -3.32950785E-04  1.29115786E-03 -3.34092452E-05
  2.29888663E-04 -3.34092452E-05  2.29888663E-04 -3.32950785E-04  1.29115786E-03
 -3.34092452E-05  2.29888663E-04 -3.34092452E-05  2.29888663E-04  0.00000000E+00
  0.00000000E+00 -2.67068769E-04  0.00000000E+00  0.00000000E+00  0.00000000E+00
  1.60102181E-03  0.00000000E+00  0.00000000E+00  0.00000000E+00  0.00000000E+00
  0.00000000E+00  2.47690681E-05  0.00000000E+00  0.00000000E+00  4.96249999E-01
  2.49682891E-02 -1.76416061E-05  1.26550360E-04  0.00000000E+00 -5.16992677E-03
  6.05668555E-04 -5.53888625E-04  0.00000000E+00 -4.90131317E-03 -4.96252426E-03
 -4.86252554E-03  2.33622670E-05  0.00000000E+00  0.00000000E+00  4.96249999E-01
  2.49682891E-02 -1.76416061E-05 -1.26550360E-04  0.00000000E+00 -5.16992677E-03
  6.05668555E-04  5.53888625E-04  0.00000000E+00 -4.90131317E-03 -4.96252426E-03
 -4.86252554E-03 -2.33622670E-05  0.00000000E+00  0.00000000E+00  0.00000000E+00
  0.00000000E+00 -2.67068769E-04  0.00000000E+00  0.00000000E+00  0.00000000E+00
  1.60102181E-03  0.00000000E+00  0.00000000E+00  0.00000000E+00  0.00000000E+00
  0.00000000E+00 -2.47690681E-05  0.00000000E+00  0.00000000E+00 -4.96249999E-01
 -2.49682891E-02 -1.76416061E-05  1.26550360E-04  0.00000000E+00  5.16992677E-03
  6.05668555E-04 -5.53888625E-04  0.00000000E+00  4.90131317E-03  4.96252426E-03
  4.86252554E-03 -2.33622670E-05  0.00000000E+00  0.00000000E+00 -4.96249999E-01
 -2.49682891E-02 -1.76416061E-05 -1.26550360E-04  0.00000000E+00  5.16992677E-03
  6.05668555E-04  5.53888625E-04  0.00000000E+00  4.90131317E-03  4.96252426E-03
  4.86252554E-03  2.33622670E-05  0.00000000E+00  0.00000000E+00  0.00000000E+00
  0.00000000E+00 -2.24095710E-04  8.75645966E-04 -2.24095710E-04  8.75645966E-04
  0.00000000E+00  0.00000000E+00  2.24095710E-04 -8.75645966E-04  2.24095710E-04
 -8.75645966E-04 -9.66668451E-03 -1.01820020E-03  0.00000000E+00  2.35384031E-04
  0.00000000E+00  4.69505406E-03  0.00000000E+00 -1.74571820E-03  0.00000000E+00
 -2.54020784E-04 -7.44816316E-05 -9.00106978E-05  0.00000000E+00  0.00000000E+00
  0.00000000E+00  4.96193321E-01  2.48377463E-02  5.34548064E-05  1.21761631E-04
  0.00000000E+00 -5.52680624E-03  7.07501986E-04 -4.44811790E-04  0.00000000E+00
 -4.82696382E-03 -4.92964600E-03 -4.91922036E-03 -4.52945141E-06  0.00000000E+00
  0.00000000E+00  4.96193321E-01  2.48377463E-02  5.34548064E-05 -1.21761631E-04
  0.00000000E+00 -5.52680624E-03  7.07501986E-04  4.44811790E-04  0.00000000E+00
 -4.82696382E-03 -4.92964600E-03 -4.91922036E-03  4.52945141E-06  0.00000000E+00
  0.00000000E+00 -9.66668451E-03 -1.01820020E-03  0.00000000E+00 -2.35384031E-04
  0.00000000E+00  4.69505406E-03  0.00000000E+00  1.74571820E-03  0.00000000E+00
 -2.54020784E-04 -7.44816316E-05 -9.00106978E-05  0.00000000E+00  0.00000000E+00
  0.00000000E+00  4.96193321E-01  2.48377463E-02 -5.34548064E-05 -1.21761631E-04
  0.00000000E+00 -5.52680624E-03 -7.07501986E-04  4.44811790E-04  0.00000000E+00
 -4.82696382E-03 -4.92964600E-03 -4.91922036E-03 -4.52945141E-06  0.00000000E+00
  0.00000000E+00  4.96193321E-01  2.48377463E-02 -5.34548064E-05  1.21761631E-04
  0.00000000E+00 -5.52680624E-03 -7.07501986E-04 -4.44811790E-04  0.00000000E+00
 -4.82696382E-03 -4.92964600E-03 -4.91922036E-03  4.52945141E-06  0.00000000E+00
  0.00000000E+00 -2.68404632E-05  3.68836800E-04 -2.34460080E-04  9.83098105E-04
 -2.34460080E-04  9.83098105E-04 -2.68404632E-05  3.68836800E-04 -2.34460080E-04
  9.83098105E-04 -2.34460080E-04  9.83098105E-04  0.00000000E+00  0.00000000E+00
 -1.97271155E-04  0.00000000E+00  0.00000000E+00  0.00000000E+00  1.44535893E-03
  0.00000000E+00  0.00000000E+00  0.00000000E+00  0.00000000E+00  0.00000000E+00
  9.61157322E-05  0.00000000E+00  0.00000000E+00  4.96427640E-01  2.53476006E-02
 -4.41855087E-05 -1.74179088E-04  0.00000000E+00 -9.86452038E-03  1.28994580E-03
  1.62888308E-03  0.00000000E+00 -4.70085924E-03 -4.54240835E-03 -4.73780556E-03