Title Card Required                                                     
SP        UB3LYP                                                      6-31G(d)            
Number of atoms                            I               12
Info1-9                                    I   N=           9
          20          19           0           0           0         111
           1          18        -502
Full Title                                 C   N=           2
Title Card Required     
Route                                      C   N=           4
# b3lyp/6-31g(d) pop=full gfinput iop(3/33=1)   
Charge                                     I                1
Multiplicity                               I                2
Number of electrons                        I               41
Number of alpha electrons                  I               21
Number of beta electrons                   I               20
Number of basis functions                  I              102
Number of independent functions            I              102
Number of point charges in /Mol/           I                0
Number of translation vectors              I                0
Atomic numbers                             I   N=          12
           6           6           6           6           6           6
           1           1           1           1           1           1
Nuclear charges                            R   N=          12
  6.00000000E+00  6.00000000E+00  6.00000000E+00  6.00000000E+00  6.00000000E+00
  6.00000000E+00  1.00000000E+00  1.00000000E+00  1.00000000E+00  1.00000000E+00
  1.00000000E+00  1.00000000E+00
Current cartesian coordinates              R   N=          36
 -8.15900888E-10  2.64826219E+00  0.00000000E+00  2.29346233E+00  1.32413110E+00
  0.00000000E+00  2.29346233E+00 -1.32413109E+00  0.00000000E+00  8.15900564E-10
 -2.64826219E+00  0.00000000E+00 -2.29346233E+00 -1.32413110E+00  0.00000000E+00
 -2.29346233E+00  1.32413109E+00  0.00000000E+00 -1.43885932E-09  4.67026914E+00
  0.00000000E+00  4.04457172E+00  2.33513457E+00  0.00000000E+00  4.04457172E+00
 -2.33513457E+00  0.00000000E+00  1.43885875E-09 -4.67026914E+00  0.00000000E+00
 -4.04457172E+00 -2.33513457E+00  0.00000000E+00 -4.04457172E+00  2.33513457E+00
  0.00000000E+00
Number of symbols in /Mol/                 I                0
Force Field                                I                0
Atom Types                                 C   N=          12
                                                            
                                                            
                        
Int Atom Types                             I   N=          12
           0           0           0           0           0           0
           0           0           0           0           0           0
MM charges                                 R   N=          12
  0.00000000E+00  0.00000000E+00  0.00000000E+00  0.00000000E+00  0.00000000E+00
  0.00000000E+00  0.00000000E+00  0.00000000E+00  0.00000000E+00  0.00000000E+00
  0.00000000E+00  0.00000000E+00
Integer atomic weights                     I   N=          12
          12          12          12          12          12          12
           1           1           1           1           1           1
Real atomic weights                        R   N=          12
  1.20000000E+01  1.20000000E+01  1.20000000E+01  1.20000000E+01  1.20000000E+01
  1.20000000E+01  1.00782504E+00  1.00782504E+00  1.00782504E+00  1.00782504E+00
  1.00782504E+00  1.00782504E+00
Atom fragment info                         I   N=          12
           0           0           0           0           0           0
           0           0           0           0           0           0
Atom residue num                           I   N=          12
           0           0           0           0           0           0
           0           0           0           0           0           0
Nuclear spins                              I   N=          12
           0           0           0           0           0           0
           1           1           1           1           1           1
Nuclear ZEff                               R   N=          12
 -3.60000000E+00 -3.60000000E+00 -3.60000000E+00 -3.60000000E+00 -3.60000000E+00
 -3.60000000E+00 -1.00000000E+00 -1.00000000E+00 -1.00000000E+00 -1.00000000E+00
 -1.00000000E+00 -1.00000000E+00
Nuclear ZNuc                               R   N=          12
  6.00000000E+00  6.00000000E+00  6.00000000E+00  6.00000000E+00  6.00000000E+00
  6.00000000E+00  1.00000000E+00  1.00000000E+00  1.00000000E+00  1.00000000E+00
  1.00000000E+00  1.00000000E+00
Nuclear QMom                               R   N=          12
  0.00000000E+00  0.00000000E+00  0.00000000E+00  0.00000000E+00  0.00000000E+00
  0.00000000E+00  0.00000000E+00  0.00000000E+00  0.00000000E+00  0.00000000E+00
  0.00000000E+00  0.00000000E+00
Nuclear GFac                               R   N=          12
  0.00000000E+00  0.00000000E+00  0.00000000E+00  0.00000000E+00  0.00000000E+00
  0.00000000E+00  2.79284600E+00  2.79284600E+00  2.79284600E+00  2.79284600E+00
  2.79284600E+00  2.79284600E+00
MicOpt                                     I   N=          12
          -1          -1          -1          -1          -1          -1
          -1          -1          -1          -1          -1          -1
Number of residues                         I                0
Number of secondary structures             I                0
SymInf integers                            I   N=          26
           4           8           1           1           1          -1
          -1           1          -1           1          -1           1
          -1          -1          -1           1           1           1
          -1           1           1           1          -1          -1
          -1          -1
RotTr to input orientation                 R   N=          12
  1.00000000E+00  3.08089165E-10  0.00000000E+00 -3.08089165E-10  1.00000000E+00
  0.00000000E+00  0.00000000E+00  0.00000000E+00  1.00000000E+00  0.00000000E+00
  4.22942105E-17  0.00000000E+00
Number of contracted shells                I               36
Number of primitive shells                 I               90
Pure/Cartesian d shells                    I                1
Pure/Cartesian f shells                    I                0
Highest angular momentum                   I                2
Largest degree of contraction              I                6
Shell types                                I   N=          36
           0          -1          -1           2           0          -1
          -1           2           0          -1          -1           2
           0          -1          -1           2           0          -1
          -1           2           0          -1          -1           2
           0           0           0           0           0           0
           0           0           0           0           0           0
Number of primitives per shell             I   N=          36
           6           3           1           1           6           3
           1           1           6           3           1           1
           6           3           1           1           6           3
           1           1           6           3           1           1
           3           1           3           1           3           1
           3           1           3           1           3           1
Shell to atom map                          I   N=          36
           1           1           1           1           2           2
           2           2           3           3           3           3
           4           4           4           4           5           5
           5           5           6           6           6           6
           7           7           8           8           9           9
          10          10          11          11          12          12
Primitive exponents                        R   N=          90
  3.04752488E+03  4.57369518E+02  1.03948685E+02  2.92101553E+01  9.28666296E+00
  3.16392696E+00  7.86827235E+00  1.88128854E+00  5.44249258E-01  1.68714478E-01
  8.00000000E-01  3.04752488E+03  4.57369518E+02  1.03948685E+02  2.92101553E+01
  9.28666296E+00  3.16392696E+00  7.86827235E+00  1.88128854E+00  5.44249258E-01
  1.68714478E-01  8.00000000E-01  3.04752488E+03  4.57369518E+02  1.03948685E+02
  2.92101553E+01  9.28666296E+00  3.16392696E+00  7.86827235E+00  1.88128854E+00
  5.44249258E-01  1.68714478E-01  8.00000000E-01  3.04752488E+03  4.57369518E+02
  1.03948685E+02  2.92101553E+01  9.28666296E+00  3.16392696E+00  7.86827235E+00
  1.88128854E+00  5.44249258E-01  1.68714478E-01  8.00000000E-01  3.04752488E+03
  4.57369518E+02  1.03948685E+02  2.92101553E+01  9.28666296E+00  3.16392696E+00
  7.86827235E+00  1.88128854E+00  5.44249258E-01  1.68714478E-01  8.00000000E-01
  3.04752488E+03  4.57369518E+02  1.03948685E+02  2.92101553E+01  9.28666296E+00
  3.16392696E+00  7.86827235E+00  1.88128854E+00  5.44249258E-01  1.68714478E-01
  8.00000000E-01  1.87311370E+01  2.82539436E+00  6.40121692E-01  1.61277759E-01
  1.87311370E+01  2.82539436E+00  6.40121692E-01  1.61277759E-01  1.87311370E+01
  2.82539436E+00  6.40121692E-01  1.61277759E-01  1.87311370E+01  2.82539436E+00
  6.40121692E-01  1.61277759E-01  1.87311370E+01  2.82539436E+00  6.40121692E-01
  1.61277759E-01  1.87311370E+01  2.82539436E+00  6.40121692E-01  1.61277759E-01
Contraction coefficients                   R   N=          90
  1.83473713E-03  1.40373228E-02  6.88426223E-02  2.32184443E-01  4.67941348E-01
  3.62311985E-01 -1.19332420E-01 -1.60854152E-01  1.14345644E+00  1.00000000E+00
  1.00000000E+00  1.83473713E-03  1.40373228E-02  6.88426223E-02  2.32184443E-01
  4.67941348E-01  3.62311985E-01 -1.19332420E-01 -1.60854152E-01  1.14345644E+00
  1.00000000E+00  1.00000000E+00  1.83473713E-03  1.40373228E-02  6.88426223E-02
  2.32184443E-01  4.67941348E-01  3.62311985E-01 -1.19332420E-01 -1.60854152E-01
  1.14345644E+00  1.00000000E+00  1.00000000E+00  1.83473713E-03  1.40373228E-02
  6.88426223E-02  2.32184443E-01  4.67941348E-01  3.62311985E-01 -1.19332420E-01
 -1.60854152E-01  1.14345644E+00  1.00000000E+00  1.00000000E+00  1.83473713E-03
  1.40373228E-02  6.88426223E-02  2.32184443E-01  4.67941348E-01  3.62311985E-01
 -1.19332420E-01 -1.60854152E-01  1.14345644E+00  1.00000000E+00  1.00000000E+00
  1.83473713E-03  1.40373228E-02  6.88426223E-02  2.32184443E-01  4.67941348E-01
  3.62311985E-01 -1.19332420E-01 -1.60854152E-01  1.14345644E+00  1.00000000E+00
  1.00000000E+00  3.34946043E-02  2.34726953E-01  8.13757326E-01  1.00000000E+00
  3.34946043E-02  2.34726953E-01  8.13757326E-01  1.00000000E+00  3.34946043E-02
  2.34726953E-01  8.13757326E-01  1.00000000E+00  3.34946043E-02  2.34726953E-01
  8.13757326E-01  1.00000000E+00  3.34946043E-02  2.34726953E-01  8.13757326E-01
  1.00000000E+00  3.34946043E-02  2.34726953E-01  8.13757326E-01  1.00000000E+00
P(S=P) Contraction coefficients            R   N=          90
  0.00000000E+00  0.00000000E+00  0.00000000E+00  0.00000000E+00  0.00000000E+00
  0.00000000E+00  6.89990666E-02  3.16423961E-01  7.44308291E-01  1.00000000E+00
  0.00000000E+00  0.00000000E+00  0.00000000E+00  0.00000000E+00  0.00000000E+00
  0.00000000E+00  0.00000000E+00  6.89990666E-02  3.16423961E-01  7.44308291E-01
  1.00000000E+00  0.00000000E+00  0.00000000E+00  0.00000000E+00  0.00000000E+00
  0.00000000E+00  0.00000000E+00  0.00000000E+00  6.89990666E-02  3.16423961E-01
  7.44308291E-01  1.00000000E+00  0.00000000E+00  0.00000000E+00  0.00000000E+00
  0.00000000E+00  0.00000000E+00  0.00000000E+00  0.00000000E+00  6.89990666E-02
  3.16423961E-01  7.44308291E-01  1.00000000E+00  0.00000000E+00  0.00000000E+00
  0.00000000E+00  0.00000000E+00  0.00000000E+00  0.00000000E+00  0.00000000E+00
  6.89990666E-02  3.16423961E-01  7.44308291E-01  1.00000000E+00  0.00000000E+00
  0.00000000E+00  0.00000000E+00  0.00000000E+00  0.00000000E+00  0.00000000E+00
  0.00000000E+00  6.89990666E-02  3.16423961E-01  7.44308291E-01  1.00000000E+00
  0.00000000E+00  0.00000000E+00  0.00000000E+00  0.00000000E+00  0.00000000E+00
  0.00000000E+00  0.00000000E+00  0.00000000E+00  0.00000000E+00  0.00000000E+00
  0.00000000E+00  0.00000000E+00  0.00000000E+00  0.00000000E+00  0.00000000E+00
  0.00000000E+00  0.00000000E+00  0.00000000E+00  0.00000000E+00  0.00000000E+00
  0.00000000E+00  0.00000000E+00  0.00000000E+00  0.00000000E+00  0.00000000E+00
Coordinates of each shell                  R   N=         108
  0.00000000E+00  2.64826219E+00  0.00000000E+00  0.00000000E+00  2.64826219E+00
  0.00000000E+00  0.00000000E+00  2.64826219E+00  0.00000000E+00  0.00000000E+00
  2.64826219E+00  0.00000000E+00  2.29346233E+00  1.32413110E+00  0.00000000E+00
  2.29346233E+00  1.32413110E+00  0.00000000E+00  2.29346233E+00  1.32413110E+00
  0.00000000E+00  2.29346233E+00  1.32413110E+00  0.00000000E+00  2.29346233E+00
 -1.32413110E+00  0.00000000E+00  2.29346233E+00 -1.32413110E+00  0.00000000E+00
  2.29346233E+00 -1.32413110E+00  0.00000000E+00  2.29346233E+00 -1.32413110E+00
  0.00000000E+00 -3.24307871E-16 -2.64826219E+00  0.00000000E+00 -3.24307871E-16
 -2.64826219E+00  0.00000000E+00 -3.24307871E-16 -2.64826219E+00  0.00000000E+00
 -3.24307871E-16 -2.64826219E+00  0.00000000E+00 -2.29346233E+00 -1.32413110E+00
  0.00000000E+00 -2.29346233E+00 -1.32413110E+00  0.00000000E+00 -2.29346233E+00
 -1.32413110E+00  0.00000000E+00 -2.29346233E+00 -1.32413110E+00  0.00000000E+00
 -2.29346233E+00  1.32413110E+00  0.00000000E+00 -2.29346233E+00  1.32413110E+00
  0.00000000E+00 -2.29346233E+00  1.32413110E+00  0.00000000E+00 -2.29346233E+00
  1.32413110E+00  0.00000000E+00  0.00000000E+00  4.67026914E+00  0.00000000E+00
  0.00000000E+00  4.67026914E+00  0.00000000E+00  4.04457172E+00  2.33513457E+00
  0.00000000E+00  4.04457172E+00  2.33513457E+00  0.00000000E+00  4.04457172E+00
 -2.33513457E+00  0.00000000E+00  4.04457172E+00 -2.33513457E+00  0.00000000E+00
 -5.71924127E-16 -4.67026914E+00  0.00000000E+00 -5.71924127E-16 -4.67026914E+00
  0.00000000E+00 -4.04457172E+00 -2.33513457E+00  0.00000000E+00 -4.04457172E+00
 -2.33513457E+00  0.00000000E+00 -4.04457172E+00  2.33513457E+00  0.00000000E+00
 -4.04457172E+00  2.33513457E+00  0.00000000E+00
Num ILSW                                   I              100
ILSW                                       I   N=         100
           1           1           0           0           2           0
           0           0           0           0         402          -1
           5           0           0           0           0           0
           0           0           1           0           0           0
           1           0           0           0           0           0
           0           0      100000           0          -1           0
           0           0           0           0           0           0
           0           0           0           1           0           0
           0 -2000000000           1           0           0           0
           0           1           4          52           0           0
           0           0           5           0           0           0
           0           0           0           0           0           1
           0           0           0           0           0           0
           0           0           0           0           0           0
           0           0           0           0           0           0
           0           0           0           0           0           0
           0           0           0           0
Num RLSW                                   I               52
RLSW                                       R   N=          52
  8.00000000E-01  7.20000000E-01  1.00000000E+00  8.10000000E-01  2.00000000E-01
  0.00000000E+00  0.00000000E+00  1.00000000E+00  0.00000000E+00  0.00000000E+00
  0.00000000E+00  0.00000000E+00  1.00000000E+00  0.00000000E+00  0.00000000E+00
  0.00000000E+00  0.00000000E+00  1.00000000E+00  0.00000000E+00  0.00000000E+00
  0.00000000E+00  0.00000000E+00  1.00000000E+00  0.00000000E+00  0.00000000E+00
  0.00000000E+00  0.00000000E+00  1.00000000E+00  0.00000000E+00  0.00000000E+00
  0.00000000E+00  0.00000000E+00  1.00000000E+00  0.00000000E+00  0.00000000E+00
  0.00000000E+00  0.00000000E+00  0.00000000E+00  1.00000000E+00  1.00000000E+00
  0.00000000E+00  1.00000000E+00  0.00000000E+00  0.00000000E+00  0.00000000E+00
  0.00000000E+00  0.00000000E+00  0.00000000E+00  0.00000000E+00  0.00000000E+00
  0.00000000E+00  0.00000000E+00
MxBond                                     I                3
NBond                                      I   N=          12
           3           3           3           3           3           3
           1           1           1           1           1           1
IBond                                      I   N=          36
           2           6           7           1           3           8
           2           4           9           3           5          10
           4           6          11           1           5          12
           1           0           0           2           0           0
           3           0           0           4           0           0
           5           0           0           6           0           0
RBond                                      R   N=          36
  1.50000000E+00  1.50000000E+00  1.00000000E+00  1.50000000E+00  1.50000000E+00
  1.00000000E+00  1.50000000E+00  1.50000000E+00  1.00000000E+00  1.50000000E+00
  1.50000000E+00  1.00000000E+00  1.50000000E+00  1.50000000E+00  1.00000000E+00
  1.50000000E+00  1.50000000E+00  1.00000000E+00  1.00000000E+00  0.00000000E+00
  0.00000000E+00  1.00000000E+00  0.00000000E+00  0.00000000E+00  1.00000000E+00
  0.00000000E+00  0.00000000E+00  1.00000000E+00  0.00000000E+00  0.00000000E+00
  1.00000000E+00  0.00000000E+00  0.00000000E+00  1.00000000E+00  0.00000000E+00
  0.00000000E+00
Virial Ratio                               R      2.008936041122616E+00
SCF Energy                                 R     -2.319171871188491E+02
Total Energy                               R     -2.319171871188491E+02
S**2                                       R      7.619284335523417E-01
S**2 after annihilation                    R      7.500296833839365E-01
RMS Density                                R      4.082115245759030E-09
Job Status                                 I                1
Nuclear derivative order                   I                0
External E-field                           R   N=          35
  0.00000000E+00  0.00000000E+00  0.00000000E+00  0.00000000E+00  0.00000000E+00
  0.00000000E+00  0.00000000E+00  0.00000000E+00  0.00000000E+00  0.00000000E+00
  0.00000000E+00  0.00000000E+00  0.00000000E+00  0.00000000E+00  0.00000000E+00
  0.00000000E+00  0.00000000E+00  0.00000000E+00  0.00000000E+00  0.00000000E+00
  0.00000000E+00  0.00000000E+00  0.00000000E+00  0.00000000E+00  0.00000000E+00
  0.00000000E+00  0.00000000E+00  0.00000000E+00  0.00000000E+00  0.00000000E+00
  0.00000000E+00  0.00000000E+00  0.00000000E+00  0.00000000E+00  0.00000000E+00
IOpCl                                      I                1
IROHF                                      I                0
Alpha Orbital Energies                     R   N=         102
 -1.04561048E+01 -1.04560971E+01 -1.04238470E+01 -1.04238332E+01 -1.04233111E+01
 -1.04233095E+01 -1.09621356E+00 -9.96912328E-01 -9.73768812E-01 -8.36609885E-01
 -8.36580991E-01 -7.50368589E-01 -6.88465042E-01 -6.81682194E-01 -6.56648423E-01
 -6.42309636E-01 -6.08152608E-01 -5.73069535E-01 -5.72577254E-01 -5.11074501E-01
 -4.76925495E-01 -2.51639231E-01 -2.29608886E-01 -9.55694136E-02 -8.00657923E-02
 -4.41628701E-02 -3.29964445E-02 -1.38746911E-02 -5.93605603E-03  1.24342162E-02
  8.50623644E-02  8.84004479E-02  9.18259110E-02  9.57357949E-02  2.61163360E-01
  2.95322557E-01  3.11875369E-01  3.11878688E-01  3.37013469E-01  3.65499111E-01
  3.67297373E-01  3.72344279E-01  3.80431413E-01  3.87127634E-01  3.96923601E-01
  4.05207329E-01  4.37908661E-01  4.51931156E-01  5.27891527E-01  6.32526381E-01
  6.37626938E-01  6.49429964E-01  6.66893730E-01  6.77325856E-01  7.16651197E-01
  7.16833318E-01  7.41014334E-01  7.42423216E-01  8.55176235E-01  8.67509307E-01
  9.08478278E-01  9.17150646E-01  9.84961434E-01  1.00875456E+00  1.14625249E+00
  1.22059011E+00  1.22311487E+00  1.22706857E+00  1.24142216E+00  1.25177387E+00
  1.27532619E+00  1.50885847E+00  1.54439269E+00  1.63936909E+00  1.68232311E+00
  1.74652291E+00  1.76287774E+00  1.81323464E+00  1.81837504E+00  1.88903536E+00
  1.89113509E+00  1.90410801E+00  1.91130981E+00  2.04425264E+00  2.05914394E+00
  2.06937093E+00  2.29824149E+00  2.31443494E+00  2.39717357E+00  2.45914455E+00
  2.46886579E+00  2.46955168E+00  2.48025462E+00  2.52544104E+00  2.77040981E+00
  3.16899487E+00  3.83677350E+00  3.86440499E+00  3.88627938E+00  4.08179180E+00
  4.09852190E+00  4.42463274E+00
Beta Orbital Energies                      R   N=         102
 -1.04497402E+01 -1.04497381E+01 -1.04234238E+01 -1.04234098E+01 -1.04228766E+01
 -1.04228752E+01 -1.08494971E+00 -9.77400826E-01 -9.71455707E-01 -8.30716515E-01
 -8.28110475E-01 -7.47881786E-01 -6.84138036E-01 -6.76975200E-01 -6.51988338E-01
 -6.42068891E-01 -5.74966364E-01 -5.71273977E-01 -5.69233685E-01 -4.72037322E-01
 -4.15185453E-01 -2.16191284E-01 -2.11707838E-01 -9.37087613E-02 -5.70575914E-02
 -4.14721851E-02 -3.29025160E-02 -6.28604098E-03 -4.23402045E-03  1.59441152E-02
  9.00702688E-02  9.01184214E-02  9.57430094E-02  9.87990029E-02  2.63332572E-01
  3.09764858E-01  3.13975087E-01  3.23913205E-01  3.40244539E-01  3.76291054E-01
  3.76672380E-01  3.83212171E-01  3.89617401E-01  3.89929605E-01  4.07354741E-01
  4.07399970E-01  4.56730598E-01  4.57179893E-01  5.38081551E-01  6.35094613E-01
  6.41422653E-01  6.50176833E-01  6.70363389E-01  6.77669396E-01  7.19314469E-01
  7.23287276E-01  7.42619935E-01  7.44224797E-01  8.64187824E-01  8.69467824E-01
  9.14700930E-01  9.17632769E-01  9.88648516E-01  1.02449610E+00  1.16065938E+00
  1.22454539E+00  1.22830710E+00  1.24717308E+00  1.24970838E+00  1.27533290E+00
  1.27931641E+00  1.52842402E+00  1.54682259E+00  1.64093730E+00  1.68850463E+00
  1.75582779E+00  1.76417617E+00  1.81765338E+00  1.82577634E+00  1.91018962E+00
  1.91220812E+00  1.91417399E+00  1.91451752E+00  2.06668367E+00  2.07057489E+00
  2.07846817E+00  2.31838230E+00  2.31856252E+00  2.41203158E+00  2.46345454E+00
  2.47053691E+00  2.47314425E+00  2.48153654E+00  2.53904608E+00  2.77308436E+00
  3.17242454E+00  3.84460076E+00  3.87704852E+00  3.88809014E+00  4.09338875E+00
  4.10078933E+00  4.43141273E+00
Alpha MO coefficients                      R   N=       10404
  7.01927588E-01  3.60061841E-02  0.00000000E+00 -3.46820015E-04  0.00000000E+00
 -1.64034319E-02  0.00000000E+00  5.43378010E-03  0.00000000E+00 -6.76953719E-03
 -6.82254032E-03 -6.71721576E-03  0.00000000E+00  0.00000000E+00  0.00000000E+00
  5.55055529E-03 -2.48576811E-04  2.03011075E-04 -1.11241635E-04  0.00000000E+00
  9.24364270E-03 -4.67093748E-03 -1.46585677E-03  0.00000000E+00 -3.18777180E-04
 -3.18112974E-04 -2.33930104E-04  7.55806646E-05  0.00000000E+00  0.00000000E+00
 -5.55055529E-03  2.48576811E-04 -2.03011075E-04 -1.11241635E-04  0.00000000E+00
 -9.24364270E-03  4.67093748E-03 -1.46585677E-03  0.00000000E+00  3.18777180E-04
  3.18112974E-04  2.33930104E-04  7.55806646E-05  0.00000000E+00  0.00000000E+00
 -7.01927588E-01 -3.60061841E-02  0.00000000E+00 -3.46820015E-04  0.00000000E+00
  1.64034319E-02  0.00000000E+00  5.43378010E-03  0.00000000E+00  6.76953719E-03
  6.82254032E-03  6.71721576E-03  0.00000000E+00  0.00000000E+00  0.00000000E+00
 -5.55055529E-03  2.48576811E-04  2.03011075E-04 -1.11241635E-04  0.00000000E+00
 -9.24364270E-03 -4.67093748E-03 -1.46585677E-03  0.00000000E+00  3.18777180E-04
  3.18112974E-04  2.33930104E-04 -7.55806646E-05  0.00000000E+00  0.00000000E+00
  5.55055529E-03 -2.48576811E-04 -2.03011075E-04 -1.11241635E-04  0.00000000E+00
  9.24364270E-03  4.67093748E-03 -1.46585677E-03  0.00000000E+00 -3.18777180E-04
 -3.18112974E-04 -2.33930104E-04 -7.55806646E-05  0.00000000E+00  0.00000000E+00
 -3.50935669E-04  3.90736009E-05  7.92118721E-05  9.77170874E-04 -7.92118721E-05
 -9.77170874E-04  3.50935669E-04 -3.90736009E-05 -7.92118721E-05 -9.77170874E-04
  7.92118721E-05  9.77170874E-04  7.01854845E-01  3.56258325E-02  0.00000000E+00
 -2.84148265E-04  0.00000000E+00 -1.08652326E-02  0.00000000E+00  1.99856630E-03
  0.00000000E+00 -6.74557537E-03 -6.85499279E-03 -6.86573245E-03  0.00000000E+00
  0.00000000E+00  0.00000000E+00  5.67309019E-03 -9.00348665E-05  2.20537306E-04
 -2.70514360E-05  0.00000000E+00  3.19645910E-03 -1.62176544E-03  2.40794417E-04
  0.00000000E+00 -2.79190792E-04 -2.23748069E-04 -1.91910287E-04  1.13234535E-04
  0.00000000E+00  0.00000000E+00  5.67309019E-03 -9.00348665E-05  2.20537306E-04
  2.70514360E-05  0.00000000E+00  3.19645910E-03 -1.62176544E-03 -2.40794417E-04
  0.00000000E+00 -2.79190792E-04 -2.23748069E-04 -1.91910287E-04 -1.13234535E-04
  0.00000000E+00  0.00000000E+00  7.01854845E-01  3.56258325E-02  0.00000000E+00
  2.84148265E-04  0.00000000E+00 -1.08652326E-02  0.00000000E+00 -1.99856630E-03
  0.00000000E+00 -6.74557537E-03 -6.85499279E-03 -6.86573245E-03  0.00000000E+00
  0.00000000E+00  0.00000000E+00  5.67309019E-03 -9.00348665E-05 -2.20537306E-04
  2.70514360E-05  0.00000000E+00  3.19645910E-03  1.62176544E-03 -2.40794417E-04
  0.00000000E+00 -2.79190792E-04 -2.23748069E-04 -1.91910287E-04  1.13234535E-04
  0.00000000E+00  0.00000000E+00  5.67309019E-03 -9.00348665E-05 -2.20537306E-04
 -2.70514360E-05  0.00000000E+00  3.19645910E-03  1.62176544E-03  2.40794417E-04
  0.00000000E+00 -2.79190792E-04 -2.23748069E-04 -1.91910287E-04 -1.13234535E-04
  0.00000000E+00  0.00000000E+00 -2.54035014E-04  9.33161787E-04 -1.93131370E-05
  3.11491915E-04 -1.93131370E-05  3.11491915E-04 -2.54035014E-04  9.33161787E-04
 -1.93131370E-05  3.11491915E-04 -1.93131370E-05  3.11491915E-04  0.00000000E+00
  0.00000000E+00 -3.38308338E-04  0.00000000E+00  0.00000000E+00  0.00000000E+00
  1.44938980E-03  0.00000000E+00  0.00000000E+00  0.00000000E+00  0.00000000E+00
  0.00000000E+00  9.91498032E-05  0.00000000E+00  0.00000000E+00  4.96290526E-01
  2.47266143E-02 -2.84560852E-04  1.22465114E-04  0.00000000E+00 -4.98524710E-03
  7.81833197E-04 -4.32492374E-04  0.00000000E+00 -4.78030760E-03 -4.85686833E-03
 -4.84618544E-03 -7.25780943E-06  0.00000000E+00  0.00000000E+00  4.96290526E-01
  2.47266143E-02 -2.84560852E-04 -1.22465114E-04  0.00000000E+00 -4.98524710E-03
  7.81833197E-04  4.32492374E-04  0.00000000E+00 -4.78030760E-03 -4.85686833E-03
 -4.84618544E-03  7.25780943E-06  0.00000000E+00  0.00000000E+00  0.00000000E+00
  0.00000000E+00 -3.38308338E-04  0.00000000E+00  0.00000000E+00  0.00000000E+00
  1.44938980E-03  0.00000000E+00  0.00000000E+00  0.00000000E+00  0.00000000E+00
  0.00000000E+00 -9.91498032E-05  0.00000000E+00  0.00000000E+00 -4.96290526E-01
 -2.47266143E-02 -2.84560852E-04  1.22465114E-04  0.00000000E+00  4.98524710E-03
  7.81833197E-04 -4.32492374E-04  0.00000000E+00  4.78030760E-03  4.85686833E-03
  4.84618544E-03  7.25780943E-06  0.00000000E+00  0.00000000E+00 -4.96290526E-01
 -2.47266143E-02 -2.84560852E-04 -1.22465114E-04  0.00000000E+00  4.98524710E-03
  7.81833197E-04  4.32492374E-04  0.00000000E+00  4.78030760E-03  4.85686833E-03
  4.84618544E-03 -7.25780943E-06  0.00000000E+00  0.00000000E+00  0.00000000E+00
  0.00000000E+00 -2.03621278E-04  7.09179574E-04 -2.03621278E-04  7.09179574E-04
  0.00000000E+00  0.00000000E+00  2.03621278E-04 -7.09179574E-04  2.03621278E-04
 -7.09179574E-04 -8.42831732E-03 -9.14327172E-04  0.00000000E+00  2.81063452E-04
  0.00000000E+00  4.60685505E-03  0.00000000E+00 -1.66732382E-03  0.00000000E+00
 -3.84735540E-04 -1.24177875E-04 -9.78746506E-05  0.00000000E+00  0.00000000E+00
  0.00000000E+00  4.96238924E-01  2.45619692E-02 -2.02152883E-04  1.39591871E-04
  0.00000000E+00 -5.37048412E-03  7.74249742E-04 -4.28757654E-04  0.00000000E+00
 -4.70050745E-03 -4.82333953E-03 -4.91969880E-03 -4.03252271E-05  0.00000000E+00
  0.00000000E+00  4.96238924E-01  2.45619692E-02 -2.02152883E-04 -1.39591871E-04
  0.00000000E+00 -5.37048412E-03  7.74249742E-04  4.28757654E-04  0.00000000E+00
 -4.70050745E-03 -4.82333953E-03 -4.91969880E-03  4.03252271E-05  0.00000000E+00
  0.00000000E+00 -8.42831732E-03 -9.14327172E-04  0.00000000E+00 -2.81063452E-04
  0.00000000E+00  4.60685505E-03  0.00000000E+00  1.66732382E-03  0.00000000E+00
 -3.84735540E-04 -1.24177875E-04 -9.78746506E-05  0.00000000E+00  0.00000000E+00
  0.00000000E+00  4.96238924E-01  2.45619692E-02  2.02152883E-04 -1.39591871E-04
  0.00000000E+00 -5.37048412E-03 -7.74249742E-04  4.28757654E-04  0.00000000E+00
 -4.70050745E-03 -4.82333953E-03 -4.91969880E-03 -4.03252271E-05  0.00000000E+00
  0.00000000E+00  4.96238924E-01  2.45619692E-02  2.02152883E-04  1.39591871E-04
  0.00000000E+00 -5.37048412E-03 -7.74249742E-04 -4.28757654E-04  0.00000000E+00
 -4.70050745E-03 -4.82333953E-03 -4.91969880E-03  4.03252271E-05  0.00000000E+00
  0.00000000E+00 -2.90135046E-05  3.43603118E-04 -1.98810938E-04  8.88422065E-04
 -1.98810938E-04  8.88422065E-04 -2.90135046E-05  3.43603118E-04 -1.98810938E-04
  8.88422065E-04 -1.98810938E-04  8.88422065E-04 -8.38449481E-03 -1.14849407E-03
  0.00000000E+00  2.13122353E-04  0.00000000E+00  1.34326718E-02  0.00000000E+00
 -6.75133431E-03  0.00000000E+00 -4.70213614E-04 -2.54682583E-04 -1.73077381E-04
  0.00000000E+00  0.00000000E+00  0.00000000E+00  4.96524088E-01  2.54879281E-02
 -3.10033601E-04 -2.07702408E-04  0.00000000E+00 -1.81900714E-02  5.97086009E-03
  4.16859860E-03  0.00000000E+00 -4.46664945E-03 -4.38823955E-03 -4.59895396E-03