Title Card Required                                                     
FOpt      RB3LYP                                                      6-31G(d)            
Number of atoms                            I               10
Info1-9                                    I   N=           9
          18          17           0           0           0         110
           2          18        -502
Full Title                                 C   N=           2
Title Card Required     
Route                                      C   N=           2
# opt b3lyp/6-31g(d)    
Charge                                     I                0
Multiplicity                               I                1
Number of electrons                        I               42
Number of alpha electrons                  I               21
Number of beta electrons                   I               21
Number of basis functions                  I               98
Number of independent functions            I               98
Number of point charges in /Mol/           I                0
Number of translation vectors              I                0
Atomic numbers                             I   N=          10
           6           1           6           1           8           6
           1           6           6           1
Nuclear charges                            R   N=          10
  6.00000000E+00  1.00000000E+00  6.00000000E+00  1.00000000E+00  8.00000000E+00
  6.00000000E+00  1.00000000E+00  6.00000000E+00  6.00000000E+00  1.00000000E+00
Current cartesian coordinates              R   N=          30
  0.00000000E+00  1.03778428E+00  0.00000000E+00  1.83431775E+00  1.95978478E+00
  0.00000000E+00 -2.25036460E+00  2.66302362E+00  9.86076132E-32 -4.08307844E+00
  1.62791035E+00  0.00000000E+00 -2.18366158E+00  4.96108394E+00  1.47911420E-31
 -2.39278053E-01 -1.50316285E+00  1.23259516E-32 -2.13546879E+00 -2.31573725E+00
 -4.93038066E-32  1.79731976E+00 -3.23875981E+00  2.46519033E-32  3.49808185E+00
 -4.77012093E+00  0.00000000E+00  5.01896837E+00 -6.09321523E+00 -9.86076132E-32
Number of symbols in /Mol/                 I                0
Force Field                                I                0
Atom Types                                 C   N=          10
                                                            
                                                            
Int Atom Types                             I   N=          10
           0           0           0           0           0           0
           0           0           0           0
MM charges                                 R   N=          10
  0.00000000E+00  0.00000000E+00  0.00000000E+00  0.00000000E+00  0.00000000E+00
  0.00000000E+00  0.00000000E+00  0.00000000E+00  0.00000000E+00  0.00000000E+00
Integer atomic weights                     I   N=          10
          12           1          12           1          16          12
           1          12          12           1
Real atomic weights                        R   N=          10
  1.20000000E+01  1.00782504E+00  1.20000000E+01  1.00782504E+00  1.59949146E+01
  1.20000000E+01  1.00782504E+00  1.20000000E+01  1.20000000E+01  1.00782504E+00
Atom fragment info                         I   N=          10
           0           0           0           0           0           0
           0           0           0           0
Atom residue num                           I   N=          10
           0           0           0           0           0           0
           0           0           0           0
Nuclear spins                              I   N=          10
           0           1           0           1           0           0
           1           0           0           1
Nuclear ZEff                               R   N=          10
 -3.60000000E+00 -1.00000000E+00 -3.60000000E+00 -1.00000000E+00 -5.60000000E+00
 -3.60000000E+00 -1.00000000E+00 -3.60000000E+00 -3.60000000E+00 -1.00000000E+00
Nuclear ZNuc                               R   N=          10
  6.00000000E+00  1.00000000E+00  6.00000000E+00  1.00000000E+00  8.00000000E+00
  6.00000000E+00  1.00000000E+00  6.00000000E+00  6.00000000E+00  1.00000000E+00
Nuclear QMom                               R   N=          10
  0.00000000E+00  0.00000000E+00  0.00000000E+00  0.00000000E+00  0.00000000E+00
  0.00000000E+00  0.00000000E+00  0.00000000E+00  0.00000000E+00  0.00000000E+00
Nuclear GFac                               R   N=          10
  0.00000000E+00  2.79284600E+00  0.00000000E+00  2.79284600E+00  0.00000000E+00
  0.00000000E+00  2.79284600E+00  0.00000000E+00  0.00000000E+00  2.79284600E+00
MicOpt                                     I   N=          10
          -1          -1          -1          -1          -1          -1
          -1          -1          -1          -1
Number of residues                         I                0
Number of secondary structures             I                0
Redundant internal dimensions              I   N=           4
          30           9          13           8
Redundant internal coordinate indices      I   N=         120
           1           2           0           0           1           3
           0           0           1           6           0           0
           3           4           0           0           3           5
           0           0           6           7           0           0
           6           8           0           0           8           9
           0           0           9          10           0           0
           2           1           3           0           2           1
           6           0           3           1           6           0
           1           3           4           0           1           3
           5           0           4           3           5           0
           1           6           7           0           1           6
           8           0           7           6           8           0
           6           8           9         -21           8           9
          10         -21           6           8           9         -22
           8           9          10         -22           2           1
           3           4           2           1           3           5
           6           1           3           4           6           1
           3           5           2           1           6           7
           2           1           6           8           3           1
           6           7           3           1           6           8
Redundant internal coordinates             R   N=          30
  2.05299940E+00  2.77588611E+00  2.55218854E+00  2.10482767E+00  2.29902817E+00
  2.06296303E+00  2.67582276E+00  2.28859314E+00  2.01585574E+00  2.05035767E+00
  2.13044524E+00  2.10238240E+00  2.00198115E+00  2.16725672E+00  2.11394744E+00
  2.06954498E+00  2.18267662E+00  2.03096371E+00  3.16885481E+00  3.12452055E+00
  3.14159265E+00  3.14159265E+00  3.14159265E+00  0.00000000E+00  0.00000000E+00
  3.14159265E+00  3.14159265E+00  0.00000000E+00  0.00000000E+00  3.14159265E+00
ZRed-IntVec                                I   N=          30
           0           0           0           0           0           0
           0           0           0           0           0           0
           0           0           0           0           0           0
           0           0           0           0           0           0
           0           0           0           0           0           0
ZRed-FPVec                                 R   N=          30
  0.00000000E+00  0.00000000E+00  0.00000000E+00  0.00000000E+00  0.00000000E+00
  0.00000000E+00  0.00000000E+00  0.00000000E+00  0.00000000E+00  0.00000000E+00
  0.00000000E+00  0.00000000E+00  0.00000000E+00  0.00000000E+00  0.00000000E+00
  0.00000000E+00  0.00000000E+00  0.00000000E+00  0.00000000E+00  0.00000000E+00
  0.00000000E+00  0.00000000E+00  0.00000000E+00  0.00000000E+00  0.00000000E+00
  0.00000000E+00  0.00000000E+00  0.00000000E+00  0.00000000E+00  0.00000000E+00
ZRed-Constraint1                           R   N=          30
  2.02245515E+00  2.91000008E+00  2.56164469E+00  2.02178665E+00  2.37806946E+00
  2.02250165E+00  2.90895565E+00  2.26951004E+00  2.02201222E+00  2.09420296E+00
  2.09369914E+00  2.09528322E+00  2.09424014E+00  2.09441539E+00  2.09452978E+00
  2.09589257E+00  2.09321379E+00  2.09407895E+00  3.14159400E+00  3.14163243E+00
  3.14159265E+00  3.14159265E+00  3.14159265E+00  0.00000000E+00  0.00000000E+00
  3.14159265E+00  3.14159265E+00  0.00000000E+00  0.00000000E+00  3.14159265E+00
ZRed-Constraint2                           R   N=          30
  0.00000000E+00  0.00000000E+00  0.00000000E+00  0.00000000E+00  0.00000000E+00
  0.00000000E+00  0.00000000E+00  0.00000000E+00  0.00000000E+00  0.00000000E+00
  0.00000000E+00  0.00000000E+00  0.00000000E+00  0.00000000E+00  0.00000000E+00
  0.00000000E+00  0.00000000E+00  0.00000000E+00  0.00000000E+00  0.00000000E+00
  0.00000000E+00  0.00000000E+00  0.00000000E+00  0.00000000E+00  0.00000000E+00
  0.00000000E+00  0.00000000E+00  0.00000000E+00  0.00000000E+00  0.00000000E+00
SymInf integers                            I   N=          26
           1           2           1           1           1           1
           1          -1           0           0           0           0
           0           0           0           0           0           0
           0           0           0           0           0           0
           0           0
RotTr to input orientation                 R   N=          12
 -5.20806002E-01  8.53675060E-01 -1.22460635E-16  8.53675060E-01  5.20806002E-01
  0.00000000E+00  6.37782340E-17 -1.04541590E-16 -1.00000000E+00  1.60217494E-02
 -8.23115770E-03  1.81426261E-18
Number of contracted shells                I               32
Number of primitive shells                 I               82
Pure/Cartesian d shells                    I                1
Pure/Cartesian f shells                    I                0
Highest angular momentum                   I                2
Largest degree of contraction              I                6
Shell types                                I   N=          32
           0          -1          -1           2           0           0
           0          -1          -1           2           0           0
           0          -1          -1           2           0          -1
          -1           2           0           0           0          -1
          -1           2           0          -1          -1           2
           0           0
Number of primitives per shell             I   N=          32
           6           3           1           1           3           1
           6           3           1           1           3           1
           6           3           1           1           6           3
           1           1           3           1           6           3
           1           1           6           3           1           1
           3           1
Shell to atom map                          I   N=          32
           1           1           1           1           2           2
           3           3           3           3           4           4
           5           5           5           5           6           6
           6           6           7           7           8           8
           8           8           9           9           9           9
          10          10
Primitive exponents                        R   N=          82
  3.04752488E+03  4.57369518E+02  1.03948685E+02  2.92101553E+01  9.28666296E+00
  3.16392696E+00  7.86827235E+00  1.88128854E+00  5.44249258E-01  1.68714478E-01
  8.00000000E-01  1.87311370E+01  2.82539436E+00  6.40121692E-01  1.61277759E-01
  3.04752488E+03  4.57369518E+02  1.03948685E+02  2.92101553E+01  9.28666296E+00
  3.16392696E+00  7.86827235E+00  1.88128854E+00  5.44249258E-01  1.68714478E-01
  8.00000000E-01  1.87311370E+01  2.82539436E+00  6.40121692E-01  1.61277759E-01
  5.48467166E+03  8.25234946E+02  1.88046958E+02  5.29645000E+01  1.68975704E+01
  5.79963534E+00  1.55396162E+01  3.59993359E+00  1.01376175E+00  2.70005823E-01
  8.00000000E-01  3.04752488E+03  4.57369518E+02  1.03948685E+02  2.92101553E+01
  9.28666296E+00  3.16392696E+00  7.86827235E+00  1.88128854E+00  5.44249258E-01
  1.68714478E-01  8.00000000E-01  1.87311370E+01  2.82539436E+00  6.40121692E-01
  1.61277759E-01  3.04752488E+03  4.57369518E+02  1.03948685E+02  2.92101553E+01
  9.28666296E+00  3.16392696E+00  7.86827235E+00  1.88128854E+00  5.44249258E-01
  1.68714478E-01  8.00000000E-01  3.04752488E+03  4.57369518E+02  1.03948685E+02
  2.92101553E+01  9.28666296E+00  3.16392696E+00  7.86827235E+00  1.88128854E+00
  5.44249258E-01  1.68714478E-01  8.00000000E-01  1.87311370E+01  2.82539436E+00
  6.40121692E-01  1.61277759E-01
Contraction coefficients                   R   N=          82
  1.83473713E-03  1.40373228E-02  6.88426223E-02  2.32184443E-01  4.67941348E-01
  3.62311985E-01 -1.19332420E-01 -1.60854152E-01  1.14345644E+00  1.00000000E+00
  1.00000000E+00  3.34946043E-02  2.34726953E-01  8.13757326E-01  1.00000000E+00
  1.83473713E-03  1.40373228E-02  6.88426223E-02  2.32184443E-01  4.67941348E-01
  3.62311985E-01 -1.19332420E-01 -1.60854152E-01  1.14345644E+00  1.00000000E+00
  1.00000000E+00  3.34946043E-02  2.34726953E-01  8.13757326E-01  1.00000000E+00
  1.83107443E-03  1.39501722E-02  6.84450781E-02  2.32714336E-01  4.70192898E-01
  3.58520853E-01 -1.10777550E-01 -1.48026263E-01  1.13076702E+00  1.00000000E+00
  1.00000000E+00  1.83473713E-03  1.40373228E-02  6.88426223E-02  2.32184443E-01
  4.67941348E-01  3.62311985E-01 -1.19332420E-01 -1.60854152E-01  1.14345644E+00
  1.00000000E+00  1.00000000E+00  3.34946043E-02  2.34726953E-01  8.13757326E-01
  1.00000000E+00  1.83473713E-03  1.40373228E-02  6.88426223E-02  2.32184443E-01
  4.67941348E-01  3.62311985E-01 -1.19332420E-01 -1.60854152E-01  1.14345644E+00
  1.00000000E+00  1.00000000E+00  1.83473713E-03  1.40373228E-02  6.88426223E-02
  2.32184443E-01  4.67941348E-01  3.62311985E-01 -1.19332420E-01 -1.60854152E-01
  1.14345644E+00  1.00000000E+00  1.00000000E+00  3.34946043E-02  2.34726953E-01
  8.13757326E-01  1.00000000E+00
P(S=P) Contraction coefficients            R   N=          82
  0.00000000E+00  0.00000000E+00  0.00000000E+00  0.00000000E+00  0.00000000E+00
  0.00000000E+00  6.89990666E-02  3.16423961E-01  7.44308291E-01  1.00000000E+00
  0.00000000E+00  0.00000000E+00  0.00000000E+00  0.00000000E+00  0.00000000E+00
  0.00000000E+00  0.00000000E+00  0.00000000E+00  0.00000000E+00  0.00000000E+00
  0.00000000E+00  6.89990666E-02  3.16423961E-01  7.44308291E-01  1.00000000E+00
  0.00000000E+00  0.00000000E+00  0.00000000E+00  0.00000000E+00  0.00000000E+00
  0.00000000E+00  0.00000000E+00  0.00000000E+00  0.00000000E+00  0.00000000E+00
  0.00000000E+00  7.08742682E-02  3.39752839E-01  7.27158577E-01  1.00000000E+00
  0.00000000E+00  0.00000000E+00  0.00000000E+00  0.00000000E+00  0.00000000E+00
  0.00000000E+00  0.00000000E+00  6.89990666E-02  3.16423961E-01  7.44308291E-01
  1.00000000E+00  0.00000000E+00  0.00000000E+00  0.00000000E+00  0.00000000E+00
  0.00000000E+00  0.00000000E+00  0.00000000E+00  0.00000000E+00  0.00000000E+00
  0.00000000E+00  0.00000000E+00  6.89990666E-02  3.16423961E-01  7.44308291E-01
  1.00000000E+00  0.00000000E+00  0.00000000E+00  0.00000000E+00  0.00000000E+00
  0.00000000E+00  0.00000000E+00  0.00000000E+00  6.89990666E-02  3.16423961E-01
  7.44308291E-01  1.00000000E+00  0.00000000E+00  0.00000000E+00  0.00000000E+00
  0.00000000E+00  0.00000000E+00
Coordinates of each shell                  R   N=          96
 -5.55111512E-17  1.03778428E+00  1.23259516E-32 -5.55111512E-17  1.03778428E+00
  1.23259516E-32 -5.55111512E-17  1.03778428E+00  1.23259516E-32 -5.55111512E-17
  1.03778428E+00  1.23259516E-32  1.83431775E+00  1.95978478E+00  4.93038066E-32
  1.83431775E+00  1.95978478E+00  4.93038066E-32 -2.25036460E+00  2.66302362E+00
  0.00000000E+00 -2.25036460E+00  2.66302362E+00  0.00000000E+00 -2.25036460E+00
  2.66302362E+00  0.00000000E+00 -2.25036460E+00  2.66302362E+00  0.00000000E+00
 -4.08307844E+00  1.62791035E+00  0.00000000E+00 -4.08307844E+00  1.62791035E+00
  0.00000000E+00 -2.18366158E+00  4.96108394E+00  9.86076132E-32 -2.18366158E+00
  4.96108394E+00  9.86076132E-32 -2.18366158E+00  4.96108394E+00  9.86076132E-32
 -2.18366158E+00  4.96108394E+00  9.86076132E-32 -2.39278053E-01 -1.50316285E+00
 -6.16297582E-33 -2.39278053E-01 -1.50316285E+00 -6.16297582E-33 -2.39278053E-01
 -1.50316285E+00 -6.16297582E-33 -2.39278053E-01 -1.50316285E+00 -6.16297582E-33
 -2.13546879E+00 -2.31573725E+00  0.00000000E+00 -2.13546879E+00 -2.31573725E+00
  0.00000000E+00  1.79731976E+00 -3.23875981E+00  2.46519033E-32  1.79731976E+00
 -3.23875981E+00  2.46519033E-32  1.79731976E+00 -3.23875981E+00  2.46519033E-32
  1.79731976E+00 -3.23875981E+00  2.46519033E-32  3.49808185E+00 -4.77012093E+00
  0.00000000E+00  3.49808185E+00 -4.77012093E+00  0.00000000E+00  3.49808185E+00
 -4.77012093E+00  0.00000000E+00  3.49808185E+00 -4.77012093E+00  0.00000000E+00
  5.01896837E+00 -6.09321523E+00  9.86076132E-32  5.01896837E+00 -6.09321523E+00
  9.86076132E-32
Num ILSW                                   I              100
ILSW                                       I   N=         100
           0           1           0           1           2           0
           0           0           0           0         402          -1
           5           0           0           0           2           0
           0           0           1           0           1           0
           1           0           0           0           0           0
           0           0      100000           0          -1           0
           0           0           0           0           0           0
           0           0           0           1           0           0
           0 -2000000000           1           0           0           0
           0           0           4          52           0           0
           0           0           5           0           0           0
           0           0           0           0           0           1
           0           0           0           0           0           0
           0           0           0           0           0           0
           0           0           0           0           0           0
           0           0           0           0           0           0
           0           0           0           0
Num RLSW                                   I               52
RLSW                                       R   N=          52
  8.00000000E-01  7.20000000E-01  1.00000000E+00  8.10000000E-01  2.00000000E-01
  0.00000000E+00  0.00000000E+00  1.00000000E+00  0.00000000E+00  0.00000000E+00
  0.00000000E+00  0.00000000E+00  1.00000000E+00  0.00000000E+00  0.00000000E+00
  0.00000000E+00  0.00000000E+00  1.00000000E+00  0.00000000E+00  0.00000000E+00
  0.00000000E+00  0.00000000E+00  1.00000000E+00  0.00000000E+00  0.00000000E+00
  0.00000000E+00  0.00000000E+00  1.00000000E+00  0.00000000E+00  0.00000000E+00
  0.00000000E+00  0.00000000E+00  1.00000000E+00  0.00000000E+00  0.00000000E+00
  0.00000000E+00  0.00000000E+00  0.00000000E+00  1.00000000E+00  1.00000000E+00
  0.00000000E+00  1.00000000E+00  0.00000000E+00  0.00000000E+00  0.00000000E+00
  0.00000000E+00  0.00000000E+00  0.00000000E+00  0.00000000E+00  0.00000000E+00
  0.00000000E+00  0.00000000E+00
MxBond                                     I                3
NBond                                      I   N=          10
           3           1           3           1           1           3
           1           2           2           1
IBond                                      I   N=          30
           2           3           6           1           0           0
           1           4           5           3           0           0
           3           0           0           1           7           8
           6           0           0           6           9           0
           8          10           0           9           0           0
RBond                                      R   N=          30
  1.00000000E+00  1.00000000E+00  2.00000000E+00  1.00000000E+00  0.00000000E+00
  0.00000000E+00  1.00000000E+00  1.00000000E+00  2.00000000E+00  1.00000000E+00
  0.00000000E+00  0.00000000E+00  2.00000000E+00  0.00000000E+00  0.00000000E+00
  2.00000000E+00  1.00000000E+00  1.00000000E+00  1.00000000E+00  0.00000000E+00
  0.00000000E+00  1.00000000E+00  3.00000000E+00  0.00000000E+00  3.00000000E+00
  1.00000000E+00  0.00000000E+00  1.00000000E+00  0.00000000E+00  0.00000000E+00
Virial Ratio                               R      2.009470844743357E+00
SCF Energy                                 R     -2.680587378566522E+02
Total Energy                               R     -2.680587378566522E+02
RMS Force                                  R      2.548094362940009E-05
RMS Density                                R      8.571206292536266E-09
Job Status                                 I                1
Nuclear derivative order                   I                1
External E-field                           R   N=          35
  0.00000000E+00  0.00000000E+00  0.00000000E+00  0.00000000E+00  0.00000000E+00
  0.00000000E+00  0.00000000E+00  0.00000000E+00  0.00000000E+00  0.00000000E+00
  0.00000000E+00  0.00000000E+00  0.00000000E+00  0.00000000E+00  0.00000000E+00
  0.00000000E+00  0.00000000E+00  0.00000000E+00  0.00000000E+00  0.00000000E+00
  0.00000000E+00  0.00000000E+00  0.00000000E+00  0.00000000E+00  0.00000000E+00
  0.00000000E+00  0.00000000E+00  0.00000000E+00  0.00000000E+00  0.00000000E+00
  0.00000000E+00  0.00000000E+00  0.00000000E+00  0.00000000E+00  0.00000000E+00
IOpCl                                      I                0
IROHF                                      I                0
Alpha Orbital Energies                     R   N=          98
 -1.91496635E+01 -1.02802316E+01 -1.02465656E+01 -1.02186735E+01 -1.02149341E+01
 -1.02123251E+01 -1.04377943E+00 -8.35692171E-01 -7.62182913E-01 -6.74737489E-01
 -5.85228855E-01 -5.54044357E-01 -5.02811584E-01 -4.91700448E-01 -4.27079287E-01
 -4.14327664E-01 -4.02842258E-01 -3.50299202E-01 -2.96730420E-01 -2.64589931E-01
 -2.58959974E-01 -8.64623693E-02  2.88677699E-02  3.29724702E-02  1.04919849E-01
  1.06544690E-01  1.11799232E-01  1.49270053E-01  1.52010696E-01  2.40907712E-01
  2.87986870E-01  3.30274126E-01  3.71223926E-01  4.23277790E-01  4.86794191E-01
  4.90586271E-01  5.23079349E-01  5.28977546E-01  5.58710770E-01  5.95025042E-01
  6.19329321E-01  6.36132565E-01  6.45311086E-01  6.77616766E-01  7.21045833E-01
  7.35721201E-01  7.99729456E-01  8.09332267E-01  8.17141624E-01  8.51532010E-01
  8.61196165E-01  8.96225254E-01  9.37467382E-01  9.89218660E-01  1.03043878E+00
  1.07931632E+00  1.10426899E+00  1.17171453E+00  1.19720614E+00  1.29419492E+00
  1.34280285E+00  1.38424391E+00  1.46781249E+00  1.52519076E+00  1.53016167E+00
  1.54109526E+00  1.58408391E+00  1.61996952E+00  1.64618125E+00  1.76400284E+00
  1.79471198E+00  1.79559360E+00  1.87145971E+00  1.90314211E+00  1.93471322E+00
  1.96397894E+00  2.01874205E+00  2.06079939E+00  2.11700858E+00  2.15773850E+00
  2.26602268E+00  2.37775224E+00  2.37828218E+00  2.45793014E+00  2.58276334E+00
  2.63317683E+00  2.73867592E+00  2.77992075E+00  2.91251097E+00  2.98107285E+00
  3.04504004E+00  3.37080155E+00  3.88434058E+00  4.05673186E+00  4.11976179E+00
  4.21414756E+00  4.35701540E+00  4.70811890E+00
Alpha MO coefficients                      R   N=        9604
 -1.29400926E-05 -1.86358262E-05 -4.73105271E-05 -7.94112984E-06  0.00000000E+00
  4.57658213E-04 -3.87589454E-05  7.37454081E-04  0.00000000E+00  3.36997949E-05
 -8.42122774E-05 -3.07842300E-05  1.78949095E-05  0.00000000E+00  0.00000000E+00
 -3.35007461E-05 -1.89673964E-04 -3.76543913E-06  4.72905617E-04  3.72458398E-05
 -1.67731966E-05  0.00000000E+00 -3.62423693E-03 -7.46562736E-04 -3.58033337E-03
  0.00000000E+00 -4.74959146E-05 -9.54305588E-04 -4.18253512E-05 -3.48371162E-05
  0.00000000E+00  0.00000000E+00 -9.74942986E-05 -5.18186829E-04  9.92734390E-01
  2.55816078E-02 -3.07381195E-05 -1.17547520E-03  0.00000000E+00  1.45422384E-02
  3.73401553E-05 -1.84514643E-03  0.00000000E+00 -8.19318863E-03 -7.59258388E-03
 -8.20194967E-03  5.90058930E-07  0.00000000E+00  0.00000000E+00 -3.98357629E-06
 -4.43351493E-05 -5.03140906E-05  7.46174812E-05  0.00000000E+00  2.70626206E-03
  1.89216586E-03 -1.39677471E-03  0.00000000E+00  4.49889876E-05  1.39070337E-05
  5.28354593E-06 -3.36615085E-05  0.00000000E+00  0.00000000E+00  8.61026094E-05
  1.42833733E-04  3.40432527E-06  3.09751575E-05 -4.29824906E-05  1.99639464E-05
  0.00000000E+00  1.83176260E-04  2.81781622E-03 -2.41011299E-03  0.00000000E+00
 -1.54833053E-05 -8.63662383E-06  1.34329969E-06  2.30148939E-05  0.00000000E+00
  0.00000000E+00  5.94766033E-06  3.95333545E-05  1.74295100E-05 -1.62365778E-05
  0.00000000E+00 -3.00559658E-03  1.19107425E-03 -1.11363029E-03  0.00000000E+00
  7.36789481E-06 -6.51730108E-06  2.24919158E-06  2.58463715E-06  0.00000000E+00
  0.00000000E+00 -3.99530232E-05 -3.84368469E-04  2.45231085E-03 -8.77873043E-05
  3.33360393E-04 -1.55778634E-04  0.00000000E+00  3.98881503E-03 -1.31183563E-03
  3.68734742E-06  0.00000000E+00 -4.48574911E-04 -3.30884491E-04 -1.61082342E-04
  1.70610626E-04  0.00000000E+00  0.00000000E+00 -4.75155495E-05  1.18837336E-04
  9.92846454E-01  4.88853123E-02  1.38323260E-04  7.84540607E-04  0.00000000E+00
 -8.58147910E-03 -2.94821748E-04  4.38643246E-03  0.00000000E+00 -9.43615130E-03
 -8.32085045E-03 -9.67199013E-03 -2.30563609E-05  0.00000000E+00  0.00000000E+00
 -1.34971890E-04  2.41578334E-03 -9.95888185E-05  5.74144827E-04 -2.68595487E-05
  4.48292220E-05  0.00000000E+00 -4.08727568E-03  2.44106337E-04  2.30379938E-03
  0.00000000E+00  3.87584661E-04 -2.69900215E-04  5.26453180E-04 -5.84693825E-05
  0.00000000E+00  0.00000000E+00  3.65686201E-05  8.61642356E-05  1.29580652E-04
 -6.87969081E-05  0.00000000E+00 -5.57442131E-03 -3.41043870E-03  2.07491523E-03
  0.00000000E+00 -4.34116117E-05  6.78788461E-05 -7.39612018E-06  1.12844427E-04
  0.00000000E+00  0.00000000E+00 -1.23153236E-04 -4.31785088E-04 -1.83687437E-05
 -9.00514454E-05  7.67272364E-05 -5.35559581E-05  0.00000000E+00 -3.88808223E-04
 -5.23211244E-03  4.77425139E-03  0.00000000E+00 -2.55960457E-06  2.34323386E-05
 -2.47824777E-05 -4.60899346E-05  0.00000000E+00  0.00000000E+00 -9.20651907E-06
 -6.99207607E-05 -3.44889745E-05  3.47407399E-05  0.00000000E+00  5.72785806E-03
 -2.32033605E-03  2.05701807E-03  0.00000000E+00 -6.45956736E-09  4.27059417E-06
 -3.18727129E-06 -5.45519922E-06  0.00000000E+00  0.00000000E+00  7.27252103E-05
  7.33683734E-04  1.35169110E-02  1.17126033E-04  6.05630904E-05  3.50764887E-04
  0.00000000E+00  5.43217126E-03  5.35926939E-04 -2.39374851E-03  0.00000000E+00
 -3.84900902E-04 -4.15586329E-04 -2.59715678E-04 -7.44082589E-05  0.00000000E+00
  0.00000000E+00 -1.21401390E-04 -3.75594301E-04 -5.49762938E-05 -6.87957192E-05
 -2.65714735E-06 -2.12259695E-06  0.00000000E+00  1.71542511E-04 -6.25195389E-05
  2.96834351E-04  0.00000000E+00  1.87898552E-05  8.53549408E-05 -8.86919164E-06
 -4.04495776E-05  0.00000000E+00  0.00000000E+00  3.19085099E-05 -1.28054678E-04
 -3.26053469E-06 -1.46670745E-05 -2.05257679E-05  1.57902346E-05  0.00000000E+00
 -8.93978881E-05  1.46457662E-04  1.56211036E-05  0.00000000E+00  2.38338615E-06
 -2.62484583E-05 -1.98490173E-05 -4.32738640E-05  0.00000000E+00  0.00000000E+00
  9.92685601E-01  4.94867439E-02  4.66275656E-04 -2.74726654E-04  0.00000000E+00
 -1.72135038E-02 -2.82383462E-03 -1.04758471E-04  0.00000000E+00 -9.24714824E-03
 -8.99575635E-03 -9.54649320E-03 -1.29518694E-04  0.00000000E+00  0.00000000E+00
 -3.12378498E-04  1.59305106E-03  6.80252623E-03  3.11281939E-05  3.13768911E-04
 -2.14780156E-04  0.00000000E+00  6.10313715E-03 -2.34325733E-03  2.48236832E-03
  0.00000000E+00 -7.16543014E-04 -4.69534728E-04 -1.80877079E-04  3.02965154E-04
  0.00000000E+00  0.00000000E+00  2.26407558E-04  2.54346144E-04 -1.51027274E-04
  1.56877394E-04  0.00000000E+00  3.65493286E-04  3.65496174E-04 -4.52886394E-04
  0.00000000E+00  9.66274913E-05  8.99717623E-05  5.30167484E-06 -9.16998139E-05
  0.00000000E+00  0.00000000E+00 -9.34856992E-05 -2.98284416E-04  9.92662846E-01
  4.97484040E-02 -2.66199055E-04 -2.49091131E-04  0.00000000E+00 -1.63534788E-02
  2.37598826E-03  1.09371395E-03  0.00000000E+00 -9.39525637E-03 -9.12686513E-03
 -9.63839023E-03  3.78501908E-05  0.00000000E+00  0.00000000E+00 -3.57836544E-04
  1.54207197E-03 -2.73781179E-03 -4.29717501E-04 -2.25920169E-04  1.43631848E-04
  0.00000000E+00  5.44246349E-03  1.76902378E-03 -1.33103424E-03  0.00000000E+00
 -4.09140998E-04 -2.12199943E-04 -1.30378132E-04  1.68014738E-04  0.00000000E+00
  0.00000000E+00 -1.20892822E-04 -1.83057388E-04  2.63196761E-05  7.90430997E-05
  1.97595546E-05 -2.95948613E-05  0.00000000E+00 -7.21559056E-04 -2.68386432E-04
  2.96340745E-04  0.00000000E+00  1.30535963E-04  9.58702736E-05  2.38132875E-05
  1.93885346E-05  0.00000000E+00  0.00000000E+00 -1.39834501E-02 -1.19605706E-03
 -7.60302690E-05 -4.18286052E-04  0.00000000E+00  5.65335709E-03 -6.30058800E-04
  2.86725624E-03  0.00000000E+00 -1.39516899E-04 -3.04541270E-04 -5.03765743E-07
 -2.10526181E-05  0.00000000E+00  0.00000000E+00 -1.16062458E-04 -3.52825420E-04
 -1.09207490E-03 -1.72217165E-04  2.32779097E-05 -1.51443841E-05  0.00000000E+00
  5.62855041E-04 -3.73541414E-04 -2.40467956E-05  0.00000000E+00  8.89116818E-05
  1.03772947E-04 -3.42220016E-05 -7.50464053E-05  0.00000000E+00  0.00000000E+00